HFO-1234zeE
 6840
    1UNK    F00    1   4.300   0.380   3.136  0.1470  0.4996  0.1418
    1UNK    C01    2   4.217   0.285   3.093  0.2751  0.3439 -0.0576
    1UNK    H02    3   4.167   0.240   3.179 -1.0011  0.5215 -0.6885
    1UNK    C03    4   4.213   0.235   2.973  0.3781 -0.1397 -0.0129
    1UNK    C04    5   4.203   0.313   2.848 -0.2106 -0.1596 -0.4656
    1UNK    F05    6   4.148   0.232   2.758 -0.0039 -0.0488 -0.2154
    1UNK    F06    7   4.119   0.419   2.864  0.5528  0.1514  0.3656
    1UNK    F07    8   4.329   0.352   2.813 -0.3079 -0.2877 -0.0238
    1UNK    H08    9   4.265   0.142   2.956  0.2795 -0.6443  2.1104
    2UNK    F00   10   1.640   1.385   3.318 -0.2889 -0.4265 -0.3518
    2UNK    C01   11   1.747   1.326   3.257 -0.2529  0.0097 -0.0075
    2UNK    H02   12   1.841   1.365   3.296 -1.2538  2.3291  0.2064
    2UNK    C03   13   1.725   1.218   3.183 -0.4017  0.4945 -1.0326
    2UNK    C04   14   1.661   1.241   3.053 -0.2325  0.5118 -0.1462
    2UNK    F05   15   1.738   1.310   2.966 -1.0818 -0.4974 -0.2789
    2UNK    F06   16   1.643   1.119   2.994 -0.6412  0.3182  0.4861
    2UNK    F07   17   1.545   1.309   3.049  0.6405 -0.0286  0.2680
    2UNK    H08   18   1.676   1.139   3.238  0.0538  0.6781 -0.3508
    3UNK    F00   19   0.248   3.968   4.446 -0.2085  0.4193  0.0407
    3UNK    C01   20   0.360   3.895   4.471  0.5176 -0.7130  0.6317
    3UNK    H02   21   0.395   3.907   4.574 -0.5104  1.1289  0.8125
    3UNK    C03   22   0.428   3.858   4.366  0.3137 -0.0033  0.2213
    3UNK    C04   23   0.509   3.955   4.297 -0.1395  0.4292  0.3134
    3UNK    F05   24   0.598   3.888   4.221 -0.2489 -0.4281 -0.0259
    3UNK    F06   25   0.432   4.011   4.204  0.3546 -0.8564  0.4731
    3UNK    F07   26   0.568   4.049   4.376 -0.0968 -0.2058 -0.1121
    3UNK    H08   27   0.395   3.773   4.308  1.3865  0.9770 -1.9397
    4UNK    F00   28   1.603   1.083   2.168  0.7539  0.0366 -0.2181
    4UNK    C01   29   1.707   1.021   2.112  0.2549 -0.4362 -0.7328
    4UNK    H02   30   1.771   1.100   2.072  0.6967  0.6085  1.8377
    4UNK    C03   31   1.703   0.885   2.087  0.5421 -0.2327  0.0971
    4UNK    C04   32   1.630   0.847   1.968  0.1177  0.3247  0.5981
    4UNK    F05   33   1.518   0.919   1.940 -0.3032 -0.2293  0.0576
    4UNK    F06   34   1.709   0.880   1.860  0.0515 -0.4421 -0.3342
    4UNK    F07   35   1.602   0.716   1.958 -0.6541  0.3181 -1.0287
    4UNK    H08   36   1.797   0.834   2.095 -0.5117 -2.5800 -1.3857
    5UNK    F00   37   2.289   0.533   2.991 -0.4698 -0.2005  0.4094
    5UNK    C01   38   2.340   0.568   2.873 -0.1963 -0.5530  0.0498
    5UNK    H02   39   2.326   0.492   2.796  0.6073  0.6545 -1.3329
    5UNK    C03   40   2.415   0.673   2.867 -0.4227 -0.5265 -0.7057
    5UNK    C04   41   2.467   0.744   2.746  0.6996 -0.4676 -0.0224
    5UNK    F05   42   2.529   0.653   2.663  0.1666  0.0680  0.6539
    5UNK    F06   43   2.365   0.810   2.683  0.2526 -0.0296 -0.5399
    5UNK    F07   44   2.565   0.830   2.774  0.0096  0.2677  0.1386
    5UNK    H08   45   2.422   0.727   2.960 -0.2123 -1.4737 -0.1542
    6UNK    F00   46   3.036   3.110   1.256 -0.0050 -0.2314  0.2014
    6UNK    C01   47   3.120   3.056   1.342 -0.0231 -0.0881 -0.4479
    6UNK    H02   48   3.209   3.005   1.307 -0.9099 -0.6663 -1.9251
    6UNK    C03   49   3.086   3.080   1.470 -0.0862  1.0703  0.0212
    6UNK    C04   50   3.044   3.208   1.525 -0.1947 -0.8704 -0.1761
    6UNK    F05   51   3.067   3.212   1.657  0.0960  0.3103 -0.2954
    6UNK    F06   52   3.093   3.315   1.456 -0.0381  0.5421  0.3614
    6UNK    F07   53   2.909   3.225   1.509  0.6835 -0.5733 -0.1102
    6UNK    H08   54   3.043   3.003   1.532  1.4377  1.6751  1.9147
    7UNK    F00   55   4.677   3.648   3.093  0.1986 -0.4645  0.2370
    7UNK    C01   56   4.661   3.530   3.036 -0.3863  0.5777 -0.0374
    7UNK    H02   57   4.574   3.537   2.970 -0.6901  1.7387  0.4480
    7UNK    C03   58   4.698   3.419   3.098  0.5822  0.2284  0.1359
    7UNK    C04   59   4.634   3.368   3.223  0.5567 -0.4912 -0.1844
    7UNK    F05   60   4.639   3.236   3.227  0.0628  0.1779  0.3322
    7UNK    F06   61   4.710   3.412   3.329 -0.0957 -0.1202  0.0303
    7UNK    F07   62   4.500   3.401   3.235 -0.4086  0.0407  0.0766
    7UNK    H08   63   4.732   3.332   3.043 -0.9868  0.5069 -1.3562
    8UNK    F00   64   1.455   3.887   3.364 -0.6013  0.3040 -0.3352
    8UNK    C01   65   1.453   3.765   3.314  0.4467 -0.4346 -0.1424
    8UNK    H02   66   1.551   3.734   3.278  0.9439  0.1280  0.6992
    8UNK    C03   67   1.345   3.685   3.338  0.5477 -0.6982  0.2948
    8UNK    C04   68   1.253   3.689   3.455  0.2617  0.1236  0.7297
    8UNK    F05   69   1.328   3.674   3.567  0.4029 -0.6850  0.0201
    8UNK    F06   70   1.182   3.805   3.464  0.2849 -0.1465  0.1729
    8UNK    F07   71   1.153   3.593   3.452  0.2992 -0.3424  0.1473
    8UNK    H08   72   1.338   3.587   3.293  1.7733 -0.7027  0.0889
    9UNK    F00   73   3.138   1.458   2.354 -0.6704  0.0056  0.4664
    9UNK    C01   74   3.067   1.432   2.456  0.8035 -0.0818 -0.7452
    9UNK    H02   75   3.123   1.418   2.549 -1.1796 -0.3426  0.4900
    9UNK    C03   76   2.938   1.389   2.447 -0.2728  0.1810 -0.5198
    9UNK    C04   77   2.847   1.426   2.560 -1.1686 -0.3926 -1.2324
    9UNK    F05   78   2.741   1.351   2.583  0.4297 -0.1291  0.1362
    9UNK    F06   79   2.913   1.449   2.677 -0.3436  0.1479  0.3848
    9UNK    F07   80   2.796   1.545   2.526 -0.4338 -0.3881 -0.2396
    9UNK    H08   81   2.889   1.326   2.375 -1.3307  0.5938 -0.1729
   10UNK    F00   82   1.265   0.168   2.104 -0.1064 -0.0503 -0.0182
   10UNK    C01   83   1.284   0.223   1.987 -0.0034  0.7976  0.1129
   10UNK    H02   84   1.385   0.263   1.977  0.0405  0.8204  0.6491
   10UNK    C03   85   1.179   0.231   1.903 -0.1314 -0.0993  0.2919
   10UNK    C04   86   1.210   0.234   1.754  0.3840 -0.0946 -0.8308
   10UNK    F05   87   1.119   0.291   1.674  0.2749 -0.4520  0.1209
   10UNK    F06   88   1.329   0.297   1.736  0.0924 -0.2890 -0.0151
   10UNK    F07   89   1.223   0.112   1.709 -0.1302  0.0913  0.4449
   10UNK    H08   90   1.077   0.237   1.938 -0.1235 -1.9735  0.7216
   11UNK    F00   91   0.252   4.378   3.435  0.2818  0.2648  0.3822
   11UNK    C01   92   0.333   4.271   3.415 -0.1634  0.2699  0.5888
   11UNK    H02   93   0.416   4.293   3.348  1.4510  0.8656  2.6963
   11UNK    C03   94   0.332   4.171   3.501  0.3420 -0.4088 -0.3052
   11UNK    C04   95   0.231   4.067   3.511  0.4519 -0.1366 -0.2721
   11UNK    F05   96   0.112   4.118   3.468 -0.0333  0.3829  0.2330
   11UNK    F06   97   0.257   3.948   3.456  0.0779  0.0042 -0.1945
   11UNK    F07   98   0.218   4.034   3.645  0.1492 -0.0854  0.3524
   11UNK    H08   99   0.399   4.179   3.586 -2.2030  1.1771  1.6950
   12UNK    F00  100   2.066   0.727   4.745  0.2918 -0.1622 -0.1542
   12UNK    C01  101   1.995   0.717   4.853  0.6849  0.2484 -0.0044
   12UNK    H02  102   2.047   0.735   4.947 -0.9592  0.6580  0.8554
   12UNK    C03  103   1.891   0.638   4.840 -0.5731  0.0588  0.1629
   12UNK    C04  104   1.779   0.631   4.936 -0.5152  0.1300 -0.2569
   12UNK    F05  105   1.709   0.743   4.941  0.2342 -0.3781  0.0205
   12UNK    F06  106   1.694   0.526   4.918  0.3633  0.1494 -0.0108
   12UNK    F07  107   1.824   0.608   5.065 -0.7976 -0.4591  0.3076
   12UNK    H08  108   1.895   0.560   4.765 -1.2330  0.6442 -0.4931
   13UNK    F00  109   2.578   3.895   0.438  0.0174 -0.0909 -0.1980
   13UNK    C01  110   2.531   3.991   0.353 -0.0098  1.0138 -0.9219
   13UNK    H02  111   2.593   3.990   0.264 -0.1415  0.5108 -1.0119
   13UNK    C03  112   2.449   4.088   0.398  0.2800  0.6950 -0.2161
   13UNK    C04  113   2.508   4.191   0.484  0.1628 -0.5505 -0.1399
   13UNK    F05  114   2.574   4.291   0.409  0.1013  0.0107 -0.2112
   13UNK    F06  115   2.409   4.244   0.553 -0.2310  0.7856 -0.5646
   13UNK    F07  116   2.603   4.144   0.569 -0.1190 -0.4977  0.2096
   13UNK    H08  117   2.348   4.058   0.423 -0.3785  2.8848 -0.0306
   14UNK    F00  118   0.824   0.912   3.462  0.0360 -0.4739  0.2610
   14UNK    C01  119   0.939   0.849   3.449 -0.9728  0.0424  0.5224
   14UNK    H02  120   0.931   0.762   3.383 -0.2501  0.8577 -0.6640
   14UNK    C03  121   1.038   0.864   3.540  0.0399  0.2154  0.3728
   14UNK    C04  122   1.175   0.817   3.507  0.1111 -0.0938  0.0179
   14UNK    F05  123   1.168   0.711   3.423  0.2976 -0.2445  0.1623
   14UNK    F06  124   1.256   0.912   3.446 -0.3380  0.2346  0.4064
   14UNK    F07  125   1.253   0.777   3.614  0.5765  0.4452  0.2208
   14UNK    H08  126   1.031   0.961   3.589 -0.0365 -0.1088  1.0125
   15UNK    F00  127   1.139   3.180   4.338  0.5414 -0.0008 -0.0538
   15UNK    C01  128   1.027   3.193   4.416  0.0409 -1.0927 -0.4040
   15UNK    H02  129   1.053   3.219   4.519 -1.5530  0.0392 -0.2450
   15UNK    C03  130   0.907   3.162   4.374 -0.7802  1.1265 -0.5230
   15UNK    C04  131   0.790   3.246   4.403  0.4827  0.2125 -0.8974
   15UNK    F05  132   0.790   3.320   4.515 -0.1739  0.0039 -0.2548
   15UNK    F06  133   0.768   3.332   4.306  0.1339 -0.0116  0.4571
   15UNK    F07  134   0.680   3.164   4.394 -0.0390  0.2453  0.0190
   15UNK    H08  135   0.888   3.080   4.307 -0.9455  0.7102  0.0227
   16UNK    F00  136   3.832   0.797   0.569 -0.1984 -0.5151  0.1948
   16UNK    C01  137   3.922   0.891   0.609 -0.4685 -0.3174  0.0635
   16UNK    H02  138   3.984   0.860   0.693  1.5572  0.8132 -0.9388
   16UNK    C03  139   3.949   0.998   0.535  0.2455  0.1654 -0.1430
   16UNK    C04  140   3.851   1.109   0.538 -0.1947  0.4325 -0.0647
   16UNK    F05  141   3.834   1.163   0.658  0.4906 -0.6077 -0.0255
   16UNK    F06  142   3.904   1.207   0.464  0.1868 -0.4134  0.4126
   16UNK    F07  143   3.726   1.080   0.488  0.3647  0.4548  0.1953
   16UNK    H08  144   3.977   0.980   0.432 -0.5552 -1.6125 -0.0955
   17UNK    F00  145   4.018   1.074   4.668 -0.1500  0.3145 -0.0633
   17UNK    C01  146   3.949   1.162   4.602  0.1010  0.5300 -0.0262
   17UNK    H02  147   4.017   1.228   4.548  0.5363  1.4040  1.5380
   17UNK    C03  148   3.821   1.192   4.632  0.0704  0.7404  0.3342
   17UNK    C04  149   3.788   1.323   4.685  0.4041  0.4153 -0.0164
   17UNK    F05  150   3.799   1.412   4.582  0.1165  0.2297  0.3861
   17UNK    F06  151   3.656   1.328   4.724 -0.5470  0.0546 -0.1353
   17UNK    F07  152   3.878   1.363   4.785  0.0139  0.5726 -0.8118
   17UNK    H08  153   3.762   1.113   4.674  2.9623 -2.0971 -0.5689
   18UNK    F00  154   0.440   4.006   3.917 -0.0303  0.1610 -0.1008
   18UNK    C01  155   0.439   4.137   3.916  1.0467 -0.3835 -0.4174
   18UNK    H02  156   0.344   4.179   3.951  1.9273  1.5309 -0.1904
   18UNK    C03  157   0.554   4.192   3.927 -0.1542  1.1194  0.1918
   18UNK    C04  158   0.659   4.186   3.823 -0.0437 -0.6240 -0.2596
   18UNK    F05  159   0.783   4.184   3.875 -0.3570  0.0635  0.7667
   18UNK    F06  160   0.647   4.082   3.738 -0.0896 -0.5419  0.7099
   18UNK    F07  161   0.652   4.293   3.741  0.1659 -0.2972 -0.2753
   18UNK    H08  162   0.582   4.252   4.012 -1.1207  2.0256 -0.1070
   19UNK    F00  163   1.039   3.887   1.496  0.0039  0.1270 -0.3627
   19UNK    C01  164   1.033   4.002   1.429 -0.2695  1.1042  0.6045
   19UNK    H02  165   0.929   4.029   1.409 -0.0524 -0.2889 -3.4711
   19UNK    C03  166   1.152   4.053   1.394  1.2959  0.0590  0.1638
   19UNK    C04  167   1.261   4.075   1.488  0.0840 -0.1746 -0.7906
   19UNK    F05  168   1.350   3.966   1.485 -0.0304  0.4225  0.1699
   19UNK    F06  169   1.328   4.188   1.440 -0.2531 -0.4112 -0.0914
   19UNK    F07  170   1.223   4.113   1.616 -0.2099  0.3633 -0.1107
   19UNK    H08  171   1.177   4.055   1.289 -0.4123  1.2520 -0.2627
   20UNK    F00  172   2.602   3.050   0.307 -0.0322 -0.3420  0.3199
   20UNK    C01  173   2.685   3.151   0.262 -0.2855 -0.1712 -0.1371
   20UNK    H02  174   2.767   3.108   0.205  0.0366 -0.6761  0.6884
   20UNK    C03  175   2.620   3.262   0.237 -0.2196  0.3681  0.0049
   20UNK    C04  176   2.670   3.363   0.150 -0.1371 -0.1370 -0.5647
   20UNK    F05  177   2.637   3.484   0.207  0.7401 -0.1032 -0.2475
   20UNK    F06  178   2.808   3.361   0.138 -0.2277 -0.1228 -0.1080
   20UNK    F07  179   2.624   3.340   0.026 -0.0990  0.4538  0.1865
   20UNK    H08  180   2.554   3.297   0.316 -1.7771 -3.5545  0.6848
   21UNK    F00  181   0.951   4.537   0.745 -0.2404 -0.5567  0.3660
   21UNK    C01  182   0.945   4.440   0.835  0.2532  0.3673 -0.5085
   21UNK    H02  183   0.918   4.343   0.794 -1.1887  0.1734  0.7945
   21UNK    C03  184   0.959   4.467   0.961  0.3201 -0.3250 -0.0894
   21UNK    C04  185   0.970   4.372   1.070 -0.4757 -0.2610 -0.1546
   21UNK    F05  186   0.934   4.246   1.035  0.0344  0.0654 -0.4703
   21UNK    F06  187   1.102   4.371   1.120  0.7819  0.1847  0.3300
   21UNK    F07  188   0.895   4.408   1.174 -0.4227 -0.4721  0.0091
   21UNK    H08  189   0.973   4.571   0.986 -0.6876 -0.3152  0.5108
   22UNK    F00  190   3.859   1.485   1.150 -0.0896 -0.2560  0.4655
   22UNK    C01  191   3.866   1.548   1.269 -0.2083  0.7753  0.6040
   22UNK    H02  192   3.810   1.642   1.261 -0.1453  1.1545  3.4711
   22UNK    C03  193   3.870   1.482   1.382 -0.1251 -0.6116 -1.2054
   22UNK    C04  194   3.845   1.547   1.512 -0.4647  0.0246  0.3844
   22UNK    F05  195   3.937   1.647   1.520 -0.0184 -0.1795  0.6396
   22UNK    F06  196   3.714   1.590   1.528  0.3414  0.5588  0.1106
   22UNK    F07  197   3.860   1.449   1.612 -0.3698 -0.3725 -0.3729
   22UNK    H08  198   3.940   1.399   1.383  2.1608  1.2107 -1.8586
   23UNK    F00  199   3.602   2.598   0.165 -0.5280  0.0717  0.3908
   23UNK    C01  200   3.647   2.529   0.270  0.5521 -0.1231  0.4459
   23UNK    H02  201   3.573   2.454   0.299  0.3902 -0.9604 -1.9487
   23UNK    C03  202   3.782   2.512   0.282  0.9190 -0.0742  0.2602
   23UNK    C04  203   3.833   2.465   0.410 -0.0461  0.3297  0.3948
   23UNK    F05  204   3.839   2.331   0.413 -0.0077  0.2032 -1.1199
   23UNK    F06  205   3.968   2.500   0.415 -0.4082 -0.3554  0.3791
   23UNK    F07  206   3.776   2.513   0.524 -0.3136  0.2100  0.1514
   23UNK    H08  207   3.846   2.590   0.244 -0.8083  1.5446  0.5020
   24UNK    F00  208   2.281   0.434   1.142  0.1512 -0.3610 -0.0545
   24UNK    C01  209   2.333   0.459   1.266  0.5889  0.5457 -0.2238
   24UNK    H02  210   2.403   0.380   1.292 -3.2681 -2.2586  2.8319
   24UNK    C03  211   2.275   0.556   1.338 -0.2583  0.4958  0.0702
   24UNK    C04  212   2.349   0.606   1.450 -0.0348 -0.2128  0.8306
   24UNK    F05  213   2.386   0.507   1.532 -0.7632 -0.0774  0.1287
   24UNK    F06  214   2.462   0.667   1.405  0.0464  0.2572 -0.2774
   24UNK    F07  215   2.275   0.708   1.508 -0.7282  0.2486  0.2837
   24UNK    H08  216   2.204   0.624   1.292 -0.0657  2.1719  2.1087
   25UNK    F00  217   3.356   4.221   4.310 -0.3183  0.0850  0.1577
   25UNK    C01  218   3.280   4.280   4.220  0.3113  0.9634 -0.8373
   25UNK    H02  219   3.240   4.374   4.259 -2.4696  0.3836 -2.0572
   25UNK    C03  220   3.230   4.213   4.111  0.0591 -0.4180 -0.5157
   25UNK    C04  221   3.098   4.229   4.051 -0.1916  0.6293 -0.0172
   25UNK    F05  222   3.004   4.258   4.143  0.4981  0.1579  0.3246
   25UNK    F06  223   3.082   4.321   3.953 -0.2479 -0.0298  0.1098
   25UNK    F07  224   3.069   4.110   3.994 -0.2446 -0.0003  0.7604
   25UNK    H08  225   3.281   4.126   4.072 -0.1382 -1.2198  0.9440
   26UNK    F00  226   1.553   2.467   2.480  0.2915  0.3028  0.1777
   26UNK    C01  227   1.430   2.509   2.444  0.0823 -0.2208 -1.2293
   26UNK    H02  228   1.400   2.439   2.366  0.0865 -2.0985  0.3801
   26UNK    C03  229   1.385   2.633   2.477  1.0105 -0.1134  0.3313
   26UNK    C04  230   1.244   2.655   2.500  0.5782 -0.1590  0.5896
   26UNK    F05  231   1.219   2.783   2.454  0.1458 -0.4382 -0.2707
   26UNK    F06  232   1.185   2.569   2.410 -0.2407  0.0554 -0.2649
   26UNK    F07  233   1.207   2.631   2.628  0.2917  0.0878 -0.7641
   26UNK    H08  234   1.432   2.695   2.552 -0.8586  0.4448  1.0797
   27UNK    F00  235   4.763   1.914   2.496 -0.4273 -0.0119 -0.1131
   27UNK    C01  236   4.758   1.880   2.628  0.3779  0.7158  0.1179
   27UNK    H02  237   4.859   1.857   2.664  1.3246  3.5413 -0.5043
   27UNK    C03  238   4.639   1.850   2.673  0.2391  1.5668 -0.3165
   27UNK    C04  239   4.593   1.876   2.809 -0.2215  0.5459  0.5507
   27UNK    F05  240   4.470   1.827   2.828 -0.2552  0.1388  0.0499
   27UNK    F06  241   4.686   1.830   2.898 -0.1585 -0.0335  0.3219
   27UNK    F07  242   4.585   2.010   2.828  0.1742 -0.9595  0.1023
   27UNK    H08  243   4.577   1.792   2.605  0.4335  2.6480 -1.4506
   28UNK    F00  244   2.385   4.319   1.861 -0.3766  0.1136 -0.2092
   28UNK    C01  245   2.316   4.348   1.755 -0.3496 -0.0524  1.0545
   28UNK    H02  246   2.306   4.263   1.688  0.6848 -0.7976  1.8143
   28UNK    C03  247   2.256   4.468   1.744  0.3013 -0.9874  0.2162
   28UNK    C04  248   2.194   4.529   1.864 -0.2812 -0.1742  1.1915
   28UNK    F05  249   2.279   4.601   1.940  0.4357 -0.1840  0.1538
   28UNK    F06  250   2.101   4.618   1.815 -0.3831 -0.1434 -0.3240
   28UNK    F07  251   2.121   4.434   1.933 -0.0419 -0.2199 -0.0996
   28UNK    H08  252   2.270   4.535   1.660 -1.5627 -2.7261 -1.6029
   29UNK    F00  253   3.613   0.573   2.594 -0.0878  0.8570  0.5130
   29UNK    C01  254   3.748   0.556   2.591  0.5022  0.0615 -0.2367
   29UNK    H02  255   3.797   0.646   2.555  0.6783 -0.3884 -1.1311
   29UNK    C03  256   3.807   0.447   2.633 -0.7393  1.0233  1.2714
   29UNK    C04  257   3.862   0.348   2.539  0.6048 -0.2460  0.5818
   29UNK    F05  258   3.862   0.223   2.593 -0.6283  0.2791  0.2686
   29UNK    F06  259   3.806   0.352   2.415 -0.2241  0.0666  0.1989
   29UNK    F07  260   3.995   0.370   2.538  0.0229  0.5594  0.2583
   29UNK    H08  261   3.850   0.450   2.732 -0.0260  1.4618  0.9603
   30UNK    F00  262   2.997   0.473   3.251  0.7277  0.3355 -0.0684
   30UNK    C01  263   3.014   0.405   3.138 -0.8542 -0.4370 -0.1547
   30UNK    H02  264   3.041   0.301   3.160 -3.5290 -1.2384 -0.2294
   30UNK    C03  265   3.014   0.470   3.021  0.4531 -0.0478 -0.1865
   30UNK    C04  266   2.969   0.407   2.894  0.0651  0.8775  0.1140
   30UNK    F05  267   3.002   0.484   2.788  0.1606  0.3556  0.0403
   30UNK    F06  268   3.044   0.295   2.888  0.4021 -0.5164  0.3263
   30UNK    F07  269   2.838   0.367   2.891 -0.6240 -0.0952 -0.4637
   30UNK    H08  270   3.012   0.578   3.028 -1.9858 -0.1065  1.4835
   31UNK    F00  271   0.885   3.558   1.910  0.3281  0.2573 -0.1092
   31UNK    C01  272   0.920   3.682   1.915 -0.1698  0.0611 -0.1207
   31UNK    H02  273   1.028   3.689   1.931 -0.1670 -2.2969  1.3567
   31UNK    C03  274   0.838   3.770   1.869  0.0650 -0.1477 -0.1836
   31UNK    C04  275   0.782   3.755   1.735 -1.2612  0.0850  0.0143
   31UNK    F05  276   0.686   3.662   1.749 -0.1301  0.6293 -0.1189
   31UNK    F06  277   0.729   3.868   1.684  0.2346 -0.4478 -0.0791
   31UNK    F07  278   0.886   3.716   1.654 -0.0895 -0.3571 -0.1377
   31UNK    H08  279   0.773   3.827   1.933 -0.0232  0.5174 -0.8506
   32UNK    F00  280   0.112   1.797   0.912 -0.2164  0.1179 -0.0594
   32UNK    C01  281   0.122   1.678   0.980  0.0188 -0.7176  0.2886
   32UNK    H02  282   0.026   1.630   0.962  0.3780 -1.6136  0.7129
   32UNK    C03  283   0.240   1.618   0.977  0.5718 -0.3976  0.1525
   32UNK    C04  284   0.335   1.624   1.094  0.0288 -0.6779  0.6115
   32UNK    F05  285   0.446   1.547   1.074  0.0155 -0.3403  0.9992
   32UNK    F06  286   0.381   1.759   1.107  0.3556  0.3615 -0.4343
   32UNK    F07  287   0.268   1.578   1.202  0.1873  0.1423 -0.3814
   32UNK    H08  288   0.282   1.596   0.880  0.2729 -1.4873  0.2556
   33UNK    F00  289   2.053   3.802   4.022  0.1769  0.0100  0.0126
   33UNK    C01  290   2.012   3.786   3.897  0.5789  0.0606  0.3162
   33UNK    H02  291   1.941   3.860   3.862  0.8428 -0.2057 -0.8154
   33UNK    C03  292   2.035   3.670   3.832 -0.1747  0.1075 -0.1548
   33UNK    C04  293   2.006   3.536   3.896  0.2151 -0.0718  0.2203
   33UNK    F05  294   1.982   3.447   3.795  0.6419  0.0476 -0.1194
   33UNK    F06  295   2.104   3.479   3.977  0.3143 -0.3303  0.2189
   33UNK    F07  296   1.887   3.533   3.962 -0.4126  0.3452  0.1705
   33UNK    H08  297   2.094   3.668   3.741 -0.9062 -1.0028 -0.6356
   34UNK    F00  298   2.279   0.958   3.549  0.0925  0.5330 -0.0713
   34UNK    C01  299   2.173   0.953   3.634 -0.1694 -0.3525  0.8618
   34UNK    H02  300   2.167   0.851   3.672 -0.8496 -0.2385  1.0677
   34UNK    C03  301   2.118   1.067   3.679  0.1344  0.3011  0.7565
   34UNK    C04  302   2.034   1.146   3.590  1.0622  0.2571 -0.0285
   34UNK    F05  303   2.061   1.141   3.456  0.2764 -0.1454 -0.0878
   34UNK    F06  304   1.906   1.102   3.601 -0.5249 -0.1383 -0.2353
   34UNK    F07  305   2.029   1.280   3.629 -0.4616  0.6118  0.5202
   34UNK    H08  306   2.158   1.124   3.762 -1.4915  0.3294  1.5603
   35UNK    F00  307   2.008   0.112   4.825  0.2118 -0.4553 -0.1535
   35UNK    C01  308   2.106   0.191   4.849 -0.6114 -0.0547  0.4614
   35UNK    H02  309   2.080   0.248   4.938 -1.1377  1.3667 -0.5655
   35UNK    C03  310   2.189   0.228   4.752  0.1774 -0.0964 -0.5175
   35UNK    C04  311   2.202   0.361   4.686 -0.2687  1.3373 -1.0429
   35UNK    F05  312   2.256   0.356   4.559  0.1714  0.5410  0.3455
   35UNK    F06  313   2.079   0.421   4.683 -0.4938  0.0036 -0.3950
   35UNK    F07  314   2.289   0.435   4.761  0.2223 -0.0355 -0.3969
   35UNK    H08  315   2.248   0.155   4.698  2.0452 -0.4148  1.8022
   36UNK    F00  316   4.699   3.516   1.880  1.0143 -0.0190  0.5962
   36UNK    C01  317   4.809   3.538   1.948 -0.4224  0.3135  0.2894
   36UNK    H02  318   4.817   3.644   1.975 -0.2627  0.1115  1.0587
   36UNK    C03  319   4.876   3.431   1.990  0.3727  0.6853 -0.0507
   36UNK    C04  320   4.921   3.431   2.125 -0.1060  1.1283 -0.7313
   36UNK    F05  321   5.005   3.532   2.148 -0.7546  0.2590 -0.7795
   36UNK    F06  322   4.818   3.439   2.219 -0.2832 -0.0390  0.1517
   36UNK    F07  323   4.987   3.318   2.164 -0.6911 -0.3091  0.6497
   36UNK    H08  324   4.852   3.332   1.954  1.2932  0.4277  0.0263
   37UNK    F00  325   2.502   1.918   2.472  0.2499  0.1615 -0.0698
   37UNK    C01  326   2.504   1.782   2.469 -0.2067 -0.5828  0.2940
   37UNK    H02  327   2.600   1.736   2.495 -0.0650 -0.1892  0.4728
   37UNK    C03  328   2.388   1.713   2.462 -0.3199  0.7314  0.1261
   37UNK    C04  329   2.394   1.573   2.415 -0.5471 -0.2041 -0.5569
   37UNK    F05  330   2.477   1.555   2.312  1.1913  0.3230 -0.0764
   37UNK    F06  331   2.438   1.482   2.510  0.2510 -0.1490 -0.3154
   37UNK    F07  332   2.271   1.545   2.368 -0.1267  0.0028 -0.5273
   37UNK    H08  333   2.300   1.734   2.520 -0.9596 -1.4845  0.0554
   38UNK    F00  334   4.341   4.092   2.615  0.0419 -0.0499  0.6136
   38UNK    C01  335   4.282   3.987   2.555  0.6017  0.4805  0.4125
   38UNK    H02  336   4.262   4.004   2.449  1.0261 -0.9386  0.0872
   38UNK    C03  337   4.303   3.867   2.614  0.4497  0.1196  0.7883
   38UNK    C04  338   4.290   3.741   2.547  0.6893  0.5964  0.1571
   38UNK    F05  339   4.408   3.711   2.493 -0.3530 -0.2509  0.0677
   38UNK    F06  340   4.255   3.640   2.633 -0.0574 -0.0542 -0.0130
   38UNK    F07  341   4.194   3.735   2.446 -0.3159  0.0964  0.1108
   38UNK    H08  342   4.298   3.863   2.722 -0.6616 -0.8382  0.7175
   39UNK    F00  343   2.842   0.294   4.233  0.2409  0.1891  0.1534
   39UNK    C01  344   2.821   0.191   4.144 -0.3802 -0.3113  0.0362
   39UNK    H02  345   2.898   0.178   4.069 -0.0058 -0.5904  0.4615
   39UNK    C03  346   2.699   0.135   4.135  0.0099  0.0049  0.1851
   39UNK    C04  347   2.577   0.205   4.083 -0.4295  0.1935  0.9238
   39UNK    F05  348   2.580   0.341   4.110 -0.3540 -0.3936 -0.4004
   39UNK    F06  349   2.559   0.182   3.949 -0.0656  0.3249 -0.3552
   39UNK    F07  350   2.464   0.155   4.143  0.2529 -0.3501  0.2300
   39UNK    H08  351   2.693   0.027   4.144  1.8072 -0.2588 -1.1726
   40UNK    F00  352   1.378   3.029   2.470 -0.0993  0.1370 -0.2174
   40UNK    C01  353   1.283   3.117   2.496 -0.3908 -0.0569 -0.2561
   40UNK    H02  354   1.219   3.096   2.582 -0.6339  0.0460 -0.4090
   40UNK    C03  355   1.289   3.227   2.424 -0.1525 -0.4688  0.3740
   40UNK    C04  356   1.235   3.359   2.463 -0.5080 -0.1433 -0.0180
   40UNK    F05  357   1.324   3.433   2.534 -0.4953 -0.1033  0.1893
   40UNK    F06  358   1.187   3.439   2.361  0.2391 -0.0622  0.5073
   40UNK    F07  359   1.127   3.348   2.540 -0.1919  0.1634 -0.1268
   40UNK    H08  360   1.390   3.247   2.390 -0.6346 -0.6903 -1.2714
   41UNK    F00  361   1.153   1.196   4.404  0.0566 -0.4042 -0.2158
   41UNK    C01  362   1.166   1.325   4.438 -0.5863  0.4830 -0.3158
   41UNK    H02  363   1.153   1.381   4.346  2.4794 -0.0947 -1.2193
   41UNK    C03  364   1.095   1.345   4.552  0.5021 -0.1655  0.8999
   41UNK    C04  365   1.068   1.491   4.584  0.3799 -0.1653 -0.8201
   41UNK    F05  366   1.142   1.570   4.507  0.3480 -0.4396 -0.1636
   41UNK    F06  367   0.938   1.520   4.576 -0.2753 -0.1733 -0.7767
   41UNK    F07  368   1.101   1.508   4.717 -0.3166 -0.1201  0.0683
   41UNK    H08  369   1.013   1.279   4.572 -0.0643  0.4290  0.5842
   42UNK    F00  370   1.649   2.627   4.373 -0.0302  0.4099 -0.2945
   42UNK    C01  371   1.637   2.650   4.505  0.0603 -0.3005 -0.3733
   42UNK    H02  372   1.575   2.738   4.522  0.1627 -0.5184  1.2945
   42UNK    C03  373   1.746   2.623   4.572  0.6798 -0.3807  0.6549
   42UNK    C04  374   1.767   2.514   4.669  0.3454  0.0821  0.0632
   42UNK    F05  375   1.665   2.488   4.753 -0.2670 -0.3891  0.1667
   42UNK    F06  376   1.779   2.390   4.608  0.4947  0.2713 -0.2738
   42UNK    F07  377   1.879   2.529   4.754 -0.2160 -0.1632 -0.3016
   42UNK    H08  378   1.822   2.700   4.569 -0.9763  1.4153  2.0018
   43UNK    F00  379   2.774   0.744   4.804 -0.3094  0.2478 -0.7390
   43UNK    C01  380   2.890   0.692   4.753  0.1312  0.2911  0.5811
   43UNK    H02  381   2.969   0.705   4.827  1.5907 -0.4742 -0.7924
   43UNK    C03  382   2.891   0.605   4.652 -0.2242  0.1763 -0.0449
   43UNK    C04  383   3.010   0.523   4.617  0.4448  0.1559  0.7069
   43UNK    F05  384   3.121   0.593   4.621  0.7210  0.3768 -0.1593
   43UNK    F06  385   3.023   0.429   4.713  0.1394  0.0864  0.0050
   43UNK    F07  386   3.004   0.458   4.495 -0.6210  0.5280  0.3769
   43UNK    H08  387   2.798   0.557   4.624 -0.1937  1.0527 -1.8333
   44UNK    F00  388   3.543   0.825   3.660  0.1576  0.1176  0.4194
   44UNK    C01  389   3.629   0.906   3.609 -0.0790  0.5113  0.7725
   44UNK    H02  390   3.706   0.932   3.681 -1.1768  2.9736  1.1565
   44UNK    C03  391   3.599   0.975   3.503  0.0405 -0.2370  0.4767
   44UNK    C04  392   3.703   1.036   3.414 -0.0598  0.2567 -0.1731
   44UNK    F05  393   3.655   1.118   3.321  0.1885  0.6408 -0.0098
   44UNK    F06  394   3.774   1.109   3.492  0.3061 -0.1218 -0.5193
   44UNK    F07  395   3.771   0.936   3.359 -0.2813  0.4501 -0.6640
   44UNK    H08  396   3.498   0.962   3.467 -1.3580  1.6647  3.3476
   45UNK    F00  397   3.795   4.489   3.584  0.5473 -0.2092  0.5824
   45UNK    C01  398   3.846   4.407   3.490  0.1339 -0.1592  0.0391
   45UNK    H02  399   3.767   4.355   3.435  2.2557 -0.6220 -2.7793
   45UNK    C03  400   3.976   4.383   3.486 -0.4678  0.4105  0.5426
   45UNK    C04  401   4.076   4.442   3.394 -0.0667 -0.0334  0.4012
   45UNK    F05  402   4.178   4.357   3.386 -0.1975 -0.5101 -0.2326
   45UNK    F06  403   4.011   4.463   3.274 -0.1931  0.3050  0.2088
   45UNK    F07  404   4.124   4.552   3.457 -1.2264 -0.1469  0.4208
   45UNK    H08  405   4.005   4.297   3.544 -2.3178 -1.1395 -0.7243
   46UNK    F00  406   3.527   4.832   1.307  0.0177 -0.1911  0.5936
   46UNK    C01  407   3.413   4.903   1.314 -0.1634  0.0832  0.1087
   46UNK    H02  408   3.433   5.009   1.328 -0.4613  0.5699 -2.7570
   46UNK    C03  409   3.298   4.837   1.310  0.2370  0.2131 -0.1641
   46UNK    C04  410   3.242   4.764   1.418 -0.1867  0.2674  0.0930
   46UNK    F05  411   3.331   4.679   1.480  0.0754 -0.1897 -0.4894
   46UNK    F06  412   3.203   4.849   1.517  0.1968 -0.2053  0.1224
   46UNK    F07  413   3.141   4.692   1.368  0.2454 -0.2469  0.0402
   46UNK    H08  414   3.223   4.858   1.234  1.8278  0.1675 -1.8253
   47UNK    F00  415   2.164   4.465   4.221  0.4357 -0.0096 -0.0235
   47UNK    C01  416   2.181   4.591   4.256  0.7175 -0.2768  0.3218
   47UNK    H02  417   2.262   4.643   4.204  2.3697 -1.9493  1.0951
   47UNK    C03  418   2.111   4.635   4.361 -0.2777  0.0238  0.1464
   47UNK    C04  419   2.118   4.771   4.411  0.2766 -0.0029  0.1510
   47UNK    F05  420   2.027   4.789   4.502  0.5446 -0.0156  0.3784
   47UNK    F06  421   2.233   4.790   4.482  0.4239 -0.0516  0.4906
   47UNK    F07  422   2.103   4.870   4.318  0.2036 -0.1284 -0.4020
   47UNK    H08  423   2.067   4.562   4.428  0.7153 -1.2068 -0.5138
   48UNK    F00  424   3.113   0.267   1.092  0.1848 -0.0213 -0.7038
   48UNK    C01  425   3.102   0.279   0.960  0.7208 -0.2629 -0.5894
   48UNK    H02  426   3.153   0.370   0.927  2.7561 -1.3044 -0.4390
   48UNK    C03  427   3.073   0.173   0.894  0.4647  0.3490  0.5423
   48UNK    C04  428   3.171   0.061   0.872 -0.1144 -0.1659  0.4825
   48UNK    F05  429   3.179  -0.023   0.981 -0.3358  0.4872 -0.2015
   48UNK    F06  430   3.143   0.005   0.756 -0.1884 -0.5353  0.4168
   48UNK    F07  431   3.297   0.105   0.849 -0.1660  0.0928  0.0505
   48UNK    H08  432   2.981   0.155   0.841  0.5164 -2.1406  1.1645
   49UNK    F00  433   3.465   2.409   0.586 -0.1063  0.0494 -0.4470
   49UNK    C01  434   3.346   2.390   0.640  0.5441 -0.3554 -0.1947
   49UNK    H02  435   3.325   2.469   0.711  1.8644  0.5817 -0.8098
   49UNK    C03  436   3.261   2.303   0.583  0.1104  0.5717  0.1286
   49UNK    C04  437   3.118   2.298   0.621  0.3105 -0.1608  0.3867
   49UNK    F05  438   3.056   2.411   0.582 -0.0882 -0.1270  0.3203
   49UNK    F06  439   3.056   2.192   0.554 -0.4990  0.1571  0.3932
   49UNK    F07  440   3.109   2.282   0.757 -0.1363  0.6046 -0.5183
   49UNK    H08  441   3.277   2.267   0.482 -0.1809  0.9702 -0.0602
   50UNK    F00  442   0.650   2.506   1.891 -0.1924 -0.5223 -0.4409
   50UNK    C01  443   0.538   2.498   1.817 -0.4096 -0.3112 -0.2352
   50UNK    H02  444   0.570   2.458   1.721  2.5497 -0.6632  0.8003
   50UNK    C03  445   0.421   2.462   1.868  0.6403 -0.1015  0.1414
   50UNK    C04  446   0.297   2.460   1.789  0.6354 -0.2614 -0.1454
   50UNK    F05  447   0.205   2.413   1.871  0.0096 -0.3116 -0.2168
   50UNK    F06  448   0.252   2.580   1.748 -0.5003 -0.0048  0.3564
   50UNK    F07  449   0.313   2.380   1.683 -0.0716  0.0200  0.2711
   50UNK    H08  450   0.421   2.366   1.919 -2.6265 -0.8474 -1.0237
   51UNK    F00  451   3.542   1.007   2.634  0.3121  0.6107 -0.2285
   51UNK    C01  452   3.652   1.067   2.581  0.2276  0.3322  0.2899
   51UNK    H02  453   3.662   1.172   2.608  1.8298  0.8800 -2.1608
   51UNK    C03  454   3.746   1.000   2.516 -0.1821  0.1453  0.0385
   51UNK    C04  455   3.803   1.027   2.380  0.1869  0.9103 -0.7657
   51UNK    F05  456   3.889   1.130   2.371 -0.0466 -0.3860 -0.5228
   51UNK    F06  457   3.860   0.921   2.318  0.5053 -0.0045 -0.2869
   51UNK    F07  458   3.697   1.069   2.305 -0.0793  0.3406 -0.1330
   51UNK    H08  459   3.795   0.919   2.568  0.2442  0.4422  0.1037
   52UNK    F00  460   0.065   0.119   4.771 -0.4844  0.7755  0.0656
   52UNK    C01  461   0.171   0.169   4.841  0.0220 -0.5158 -0.4698
   52UNK    H02  462   0.188   0.267   4.796  0.3879 -0.8942 -1.1657
   52UNK    C03  463   0.203   0.145   4.964  0.5695 -0.7754 -0.2165
   52UNK    C04  464   0.274   0.020   5.010 -0.5859 -0.8983 -0.3982
   52UNK    F05  465   0.252  -0.013   5.140 -0.3636 -0.3986  0.1901
   52UNK    F06  466   0.233  -0.088   4.946  0.0444  0.0755 -0.4719
   52UNK    F07  467   0.404   0.031   4.984 -0.1266 -0.6973  0.1759
   52UNK    H08  468   0.155   0.187   5.051  0.7984 -1.4684  0.2554
   53UNK    F00  469   4.534   2.147   2.002 -0.1816  0.0088 -0.2387
   53UNK    C01  470   4.509   2.027   2.055 -0.1887 -0.2460  0.1960
   53UNK    H02  471   4.407   2.019   2.094 -0.0218 -0.5588  0.5825
   53UNK    C03  472   4.598   1.929   2.064 -0.4245 -0.8140  0.2874
   53UNK    C04  473   4.550   1.788   2.054 -0.4287 -0.2804  0.4847
   53UNK    F05  474   4.502   1.750   1.932 -0.3792  0.3532  0.0796
   53UNK    F06  475   4.641   1.697   2.092 -0.1279 -0.0028 -0.5103
   53UNK    F07  476   4.454   1.756   2.142 -0.3439  0.2331  0.4335
   53UNK    H08  477   4.696   1.948   2.022 -0.3990 -2.3177 -0.4205
   54UNK    F00  478   4.455   2.673   0.540  0.0646 -0.1604 -0.1169
   54UNK    C01  479   4.522   2.790   0.535 -0.0403 -0.4046 -0.3055
   54UNK    H02  480   4.499   2.862   0.613 -2.7712 -0.5141 -0.9047
   54UNK    C03  481   4.639   2.775   0.474 -0.1250  1.0389 -0.1466
   54UNK    C04  482   4.665   2.802   0.334 -0.5134 -0.2318  0.9990
   54UNK    F05  483   4.608   2.921   0.282 -0.2501 -0.0467 -0.0919
   54UNK    F06  484   4.800   2.801   0.320  0.3516  0.4616  0.1431
   54UNK    F07  485   4.616   2.694   0.268 -0.3681 -0.5784  0.0679
   54UNK    H08  486   4.727   2.741   0.526 -1.2021  0.4401  1.3372
   55UNK    F00  487   4.433   2.567   0.036  0.8494  0.4857  0.0667
   55UNK    C01  488   4.432   2.521  -0.090  0.2631 -0.5335  0.9152
   55UNK    H02  489   4.505   2.441  -0.084  0.8087 -0.0995  0.2624
   55UNK    C03  490   4.437   2.616  -0.187  0.5493  0.0401 -0.6559
   55UNK    C04  491   4.562   2.620  -0.261 -0.3212  0.1465 -0.2670
   55UNK    F05  492   4.671   2.635  -0.183  0.1158  0.0130  0.8754
   55UNK    F06  493   4.572   2.515  -0.343  0.1239  0.0271  0.1289
   55UNK    F07  494   4.580   2.725  -0.340 -0.1261 -0.1560 -0.3045
   55UNK    H08  495   4.402   2.714  -0.160  1.4066  0.7324 -1.9505
   56UNK    F00  496   1.783   3.496   2.057 -0.3937 -0.6768  0.5957
   56UNK    C01  497   1.693   3.525   2.141  0.0526  0.5152 -0.8487
   56UNK    H02  498   1.595   3.544   2.096 -1.1851  1.3834  1.9639
   56UNK    C03  499   1.715   3.490   2.267 -0.5488  0.5364  0.0517
   56UNK    C04  500   1.612   3.419   2.348 -0.3655 -0.2494 -0.4007
   56UNK    F05  501   1.607   3.466   2.471 -0.4625  0.1142 -0.1598
   56UNK    F06  502   1.492   3.452   2.304 -0.0257 -0.5131 -0.2893
   56UNK    F07  503   1.607   3.283   2.342  0.0793  0.2329  0.0439
   56UNK    H08  504   1.778   3.550   2.331 -0.4539 -1.1293  1.5911
   57UNK    F00  505   4.688   0.778   0.664 -0.3232  0.1666  0.1409
   57UNK    C01  506   4.794   0.862   0.669  0.3979 -0.2043 -0.8685
   57UNK    H02  507   4.874   0.845   0.597  1.2768 -2.8070  0.5812
   57UNK    C03  508   4.787   0.970   0.744  0.2219 -0.1319 -0.2754
   57UNK    C04  509   4.825   0.976   0.884  0.1999 -0.9897 -0.8192
   57UNK    F05  510   4.938   0.905   0.914 -0.6333  0.3418 -0.1349
   57UNK    F06  511   4.865   1.102   0.920 -0.3302  0.5468  0.5637
   57UNK    F07  512   4.735   0.945   0.978  0.2103  0.5064  0.6131
   57UNK    H08  513   4.763   1.059   0.687  3.4317 -0.5751 -2.6553
   58UNK    F00  514   1.683   4.313   0.031  0.3583 -0.0270 -0.5651
   58UNK    C01  515   1.707   4.344  -0.090 -0.7701 -0.4341 -0.1121
   58UNK    H02  516   1.697   4.268  -0.168 -1.1880 -1.0422  0.5235
   58UNK    C03  517   1.733   4.472  -0.099  0.5178 -1.7692 -0.6466
   58UNK    C04  518   1.864   4.531  -0.087  0.3090 -0.1087  0.3187
   58UNK    F05  519   1.922   4.536  -0.209  0.6933 -0.1346  0.2307
   58UNK    F06  520   1.860   4.658  -0.035 -0.2904  0.0955  0.0371
   58UNK    F07  521   1.940   4.459  -0.005 -0.3996  0.2981  0.1133
   58UNK    H08  522   1.661   4.545  -0.065  1.0412 -1.8928  0.7753
   59UNK    F00  523   3.989   1.508   1.906 -0.4296  0.1417 -0.7028
   59UNK    C01  524   4.124   1.494   1.924  0.5260 -0.0061 -0.5423
   59UNK    H02  525   4.152   1.496   2.029 -0.2764  1.8821 -0.3094
   59UNK    C03  526   4.197   1.472   1.812  0.7866  0.2224  0.3610
   59UNK    C04  527   4.175   1.372   1.708 -0.3855  0.1995  0.1908
   59UNK    F05  528   4.114   1.427   1.607  0.9931 -0.0477  0.2090
   59UNK    F06  529   4.301   1.337   1.676 -0.6884 -0.3880 -0.3877
   59UNK    F07  530   4.100   1.268   1.758 -0.2006 -0.0613 -0.4379
   59UNK    H08  531   4.302   1.496   1.814  1.1155 -1.1625  0.6419
   60UNK    F00  532   4.608   4.541   3.227 -0.0245  0.9660 -0.2454
   60UNK    C01  533   4.720   4.558   3.162 -0.4585  0.8500 -0.3364
   60UNK    H02  534   4.727   4.661   3.129  2.2808  0.8120 -0.0514
   60UNK    C03  535   4.812   4.467   3.155 -0.6232  0.2169 -0.5060
   60UNK    C04  536   4.942   4.498   3.085  0.3734  0.0517 -0.0149
   60UNK    F05  537   5.016   4.391   3.068 -0.0928 -0.3961  0.0115
   60UNK    F06  538   4.934   4.553   2.958 -0.0708 -0.1475  0.0901
   60UNK    F07  539   5.020   4.590   3.143 -0.5942  0.1347  0.5199
   60UNK    H08  540   4.794   4.364   3.181 -4.0931  0.7933 -0.2091
   61UNK    F00  541   2.915   2.388   1.643 -0.2782  0.3761 -0.0940
   61UNK    C01  542   3.000   2.422   1.736 -0.1998  0.9194 -0.4720
   61UNK    H02  543   2.972   2.522   1.771  0.2729  0.3755  1.5798
   61UNK    C03  544   3.049   2.323   1.810 -0.0755 -0.5814  0.3225
   61UNK    C04  545   3.171   2.248   1.765 -0.1804  0.1926 -0.5758
   61UNK    F05  546   3.281   2.312   1.807  0.0726  0.1666  0.2961
   61UNK    F06  547   3.187   2.124   1.826 -0.2632  0.1082 -0.3013
   61UNK    F07  548   3.177   2.218   1.634  0.3733 -0.2188  0.3798
   61UNK    H08  549   2.988   2.289   1.893 -1.8463  2.2779  0.2973
   62UNK    F00  550   4.067   1.860   2.849 -0.3124  0.6389 -0.4820
   62UNK    C01  551   4.111   1.946   2.949 -0.1682  0.2481 -0.4685
   62UNK    H02  552   4.168   1.878   3.013 -2.1120 -1.7795 -0.7492
   62UNK    C03  553   4.146   2.064   2.913  0.7353  1.1783  0.3945
   62UNK    C04  554   4.229   2.147   3.000  0.3836 -0.5595  0.4055
   62UNK    F05  555   4.164   2.176   3.116 -0.1455 -0.1555  0.1583
   62UNK    F06  556   4.353   2.092   3.027  0.4116  0.3312 -0.2573
   62UNK    F07  557   4.256   2.264   2.935  0.1315  0.3832  0.3678
   62UNK    H08  558   4.150   2.086   2.808  1.1603  0.0045  0.1513
   63UNK    F00  559   1.846   4.586   1.122 -0.0745 -0.1665  0.0616
   63UNK    C01  560   1.970   4.550   1.095 -0.6819  0.0808 -0.0171
   63UNK    H02  561   1.976   4.454   1.043  1.1055 -0.9896  2.0193
   63UNK    C03  562   2.075   4.580   1.170 -1.1611  0.3094  0.8463
   63UNK    C04  563   2.132   4.473   1.254 -0.5706  0.7154  0.2092
   63UNK    F05  564   2.051   4.379   1.304  0.3301  0.3222 -0.7111
   63UNK    F06  565   2.244   4.402   1.215 -0.1176 -0.4701 -0.4692
   63UNK    F07  566   2.187   4.536   1.365  0.0700 -0.2120  0.1704
   63UNK    H08  567   2.083   4.681   1.209  1.1421  0.8743 -0.8247
   64UNK    F00  568   2.878   2.680   4.572  0.1664 -0.2200 -0.1587
   64UNK    C01  569   2.970   2.773   4.604  0.2482  0.4141  0.4200
   64UNK    H02  570   3.065   2.730   4.635  0.1762 -0.8754 -1.0537
   64UNK    C03  571   2.952   2.901   4.582  0.0312 -0.0359  0.3007
   64UNK    C04  572   3.069   2.987   4.581 -0.3960  0.1732 -0.2226
   64UNK    F05  573   3.135   2.977   4.459  0.0266 -0.2487  0.0129
   64UNK    F06  574   3.035   3.115   4.611 -0.0823  0.0669 -0.1723
   64UNK    F07  575   3.159   2.958   4.685  0.2260 -0.3914 -0.3662
   64UNK    H08  576   2.875   2.933   4.513  0.2146  0.4116  0.3003
   65UNK    F00  577   3.220   0.765   0.389  0.4085  0.7137  0.2823
   65UNK    C01  578   3.115   0.709   0.318 -0.2784  0.1247  0.5720
   65UNK    H02  579   3.117   0.747   0.215 -0.1175  2.3542  1.3410
   65UNK    C03  580   3.036   0.620   0.377 -0.6014 -0.1631 -0.7154
   65UNK    C04  581   2.992   0.496   0.318 -0.3365  0.3771  0.0837
   65UNK    F05  582   2.882   0.447   0.379  0.0995  0.3527 -0.3887
   65UNK    F06  583   2.955   0.515   0.186 -0.2067 -0.2260  0.2778
   65UNK    F07  584   3.084   0.394   0.306  0.6890  0.2002  0.1805
   65UNK    H08  585   3.066   0.607   0.480 -0.5220 -1.0874 -0.8477
   66UNK    F00  586   1.587   3.331   1.378 -0.3288 -0.1464  0.4837
   66UNK    C01  587   1.569   3.288   1.248  0.3876 -0.6093  0.4711
   66UNK    H02  588   1.483   3.326   1.192  2.2673 -0.0083 -2.2376
   66UNK    C03  589   1.628   3.178   1.218  0.4950  0.3894 -0.0971
   66UNK    C04  590   1.662   3.122   1.085 -0.1521  0.7832 -0.2787
   66UNK    F05  591   1.788   3.149   1.057 -0.0316  0.7528  0.3102
   66UNK    F06  592   1.659   2.984   1.099 -0.2084 -0.1531 -0.0680
   66UNK    F07  593   1.578   3.163   0.985 -0.5164 -0.6099  0.4689
   66UNK    H08  594   1.623   3.104   1.295  0.1800  0.0579 -0.4317
   67UNK    F00  595   0.557   0.638   2.011 -0.3683 -0.0269 -0.4102
   67UNK    C01  596   0.554   0.671   1.885  1.1407  0.3731 -0.2989
   67UNK    H02  597   0.548   0.578   1.829  2.5504 -2.5309  3.8964
   67UNK    C03  598   0.579   0.789   1.832 -0.7720  1.1397  0.2099
   67UNK    C04  599   0.580   0.811   1.684  0.6074  0.2501  0.0108
   67UNK    F05  600   0.640   0.927   1.648  0.1617 -0.2740  0.1796
   67UNK    F06  601   0.643   0.711   1.616 -0.1847  0.3301  0.3104
   67UNK    F07  602   0.458   0.813   1.633 -0.3762 -0.2762 -0.0654
   67UNK    H08  603   0.623   0.871   1.888 -0.5303  0.7152  0.6524
   68UNK    F00  604   0.099   0.086   2.343  0.2008 -0.2179 -0.0190
   68UNK    C01  605   0.215   0.045   2.393 -1.6969  0.4162  0.2708
   68UNK    H02  606   0.273   0.136   2.411 -1.0699  0.4412 -1.6244
   68UNK    C03  607   0.258  -0.073   2.347 -0.0491 -0.3168 -0.1477
   68UNK    C04  608   0.343  -0.161   2.423 -0.1878  0.6129  0.5027
   68UNK    F05  609   0.412  -0.245   2.343  0.7506  0.3111 -0.1788
   68UNK    F06  610   0.430  -0.095   2.504 -1.1574  0.8105 -0.1239
   68UNK    F07  611   0.259  -0.234   2.495  0.3600  0.1839  0.2076
   68UNK    H08  612   0.251  -0.085   2.240  1.6665  2.2859 -0.6549
   69UNK    F00  613   2.974   1.794   4.510 -0.3831  0.0419 -0.1010
   69UNK    C01  614   2.911   1.774   4.391 -0.3235 -0.1246  1.0862
   69UNK    H02  615   2.807   1.807   4.391 -0.0108  0.9191  1.3491
   69UNK    C03  616   2.993   1.756   4.289  0.1815 -0.9855  0.2643
   69UNK    C04  617   2.948   1.795   4.151 -0.6815 -0.3488  0.7137
   69UNK    F05  618   3.007   1.713   4.064 -0.0539 -0.2951 -0.5939
   69UNK    F06  619   2.818   1.771   4.115  0.0281  0.0277  0.0494
   69UNK    F07  620   2.984   1.916   4.112 -0.2833 -0.0655 -0.1997
   69UNK    H08  621   3.094   1.728   4.316  0.3066  1.0959  2.3003
   70UNK    F00  622   2.485   2.282   3.839 -0.1928  0.4122  0.0062
   70UNK    C01  623   2.515   2.266   3.963 -0.8893 -0.1678 -0.3787
   70UNK    H02  624   2.435   2.298   4.031  0.7341  1.2823  0.9675
   70UNK    C03  625   2.626   2.201   4.000  0.0043  0.3292  0.6228
   70UNK    C04  626   2.656   2.058   3.975  0.1611  0.3651  0.6423
   70UNK    F05  627   2.703   2.038   3.845  0.3080 -0.4342 -0.2450
   70UNK    F06  628   2.759   2.016   4.057  0.2919  0.4760  0.4967
   70UNK    F07  629   2.548   1.976   3.991 -0.6486 -0.4999  0.4003
   70UNK    H08  630   2.721   2.253   4.004  0.2551  0.3009 -2.5024
   71UNK    F00  631   0.493   2.984   0.608  0.0961 -0.2606 -0.1201
   71UNK    C01  632   0.614   3.034   0.654  0.5417 -0.1528  0.2604
   71UNK    H02  633   0.588   3.103   0.734 -0.3716 -0.7269  0.4736
   71UNK    C03  634   0.717   3.054   0.569 -0.0975  0.1689 -0.0208
   71UNK    C04  635   0.843   3.129   0.595  0.4227 -0.0179 -0.6873
   71UNK    F05  636   0.831   3.220   0.699 -0.0199  0.1804  0.4010
   71UNK    F06  637   0.929   3.045   0.640 -0.0118 -0.0936 -0.1409
   71UNK    F07  638   0.906   3.192   0.490 -0.2069  0.2632  0.2060
   71UNK    H08  639   0.725   2.990   0.483 -0.1973 -1.7693  1.3661
   72UNK    F00  640   0.541   3.411   1.651  0.3775 -0.3788 -0.2167
   72UNK    C01  641   0.524   3.411   1.781 -0.4786  0.4475  0.3364
   72UNK    H02  642   0.418   3.426   1.803 -1.5205 -4.1809 -0.4595
   72UNK    C03  643   0.618   3.363   1.861 -0.6740  0.2165  0.4596
   72UNK    C04  644   0.589   3.317   1.997 -0.0658  0.1424 -0.5995
   72UNK    F05  645   0.503   3.395   2.060  0.5154 -0.1523  0.1400
   72UNK    F06  646   0.529   3.190   1.988  0.1961  0.1850 -0.0468
   72UNK    F07  647   0.689   3.291   2.086  0.0256 -0.2137  0.2504
   72UNK    H08  648   0.722   3.364   1.831 -1.1077 -0.1039 -1.1148
   73UNK    F00  649   3.735   1.869   0.574  0.3004  0.4382  0.1852
   73UNK    C01  650   3.653   1.944   0.509 -0.1400  0.0235  0.2499
   73UNK    H02  651   3.708   2.026   0.463 -1.2970  0.4841 -0.3374
   73UNK    C03  652   3.521   1.923   0.523  0.2741  0.0179 -0.0982
   73UNK    C04  653   3.434   1.918   0.408  0.4432  0.1769  0.3209
   73UNK    F05  654   3.496   1.918   0.294  0.2403 -0.8913 -0.3478
   73UNK    F06  655   3.336   1.827   0.408  0.1245  0.1538 -0.3205
   73UNK    F07  656   3.368   2.030   0.420 -0.3083  0.6339 -0.4852
   73UNK    H08  657   3.484   1.855   0.599 -0.3224  0.6643  0.2126
   74UNK    F00  658   0.825   3.006   1.032  0.2104 -0.3680 -0.2910
   74UNK    C01  659   0.915   2.919   1.072 -0.2067 -0.3104 -0.0130
   74UNK    H02  660   0.866   2.824   1.095  0.7694 -0.8099  0.0594
   74UNK    C03  661   1.042   2.955   1.066 -0.3815 -0.2156 -0.2308
   74UNK    C04  662   1.153   2.860   1.060 -0.1314  0.4980  0.1833
   74UNK    F05  663   1.127   2.769   0.966  0.3194 -0.1949  0.2735
   74UNK    F06  664   1.269   2.909   1.023 -0.5592 -0.0469 -0.3190
   74UNK    F07  665   1.179   2.792   1.177  0.1256  0.5357 -0.0221
   74UNK    H08  666   1.061   3.029   0.990 -1.2854  0.4416  0.1708
   75UNK    F00  667   3.190   1.500   2.761 -0.1005 -0.1244  0.5228
   75UNK    C01  668   3.270   1.421   2.828 -0.2412  0.0195  1.2931
   75UNK    H02  669   3.233   1.319   2.840  2.2255 -1.1966 -0.5985
   75UNK    C03  670   3.395   1.454   2.859 -0.3696  0.3260  0.1116
   75UNK    C04  671   3.442   1.482   2.993 -0.7849 -0.3506  0.2654
   75UNK    F05  672   3.561   1.532   3.013 -0.1627 -0.1304 -0.1478
   75UNK    F06  673   3.358   1.567   3.061  0.1585 -0.5739  0.7971
   75UNK    F07  674   3.450   1.371   3.064  0.1984 -0.2092  0.3372
   75UNK    H08  675   3.469   1.457   2.780 -1.1189 -0.2620 -0.6362
   76UNK    F00  676   1.980   1.863   3.058  0.4074  0.0346 -0.5361
   76UNK    C01  677   2.001   1.931   3.171 -1.0304 -0.1413 -0.5410
   76UNK    H02  678   1.977   2.036   3.154  1.0211  0.4603 -0.1029
   76UNK    C03  679   2.059   1.870   3.280 -0.3928  0.1026  0.5832
   76UNK    C04  680   2.014   1.739   3.328  0.2595  0.1033  0.5378
   76UNK    F05  681   2.092   1.701   3.428  0.3407  0.1286 -0.0214
   76UNK    F06  682   1.886   1.735   3.378 -0.2196 -0.0743 -0.4751
   76UNK    F07  683   2.036   1.648   3.226  0.5560 -0.3363  0.2408
   76UNK    H08  684   2.148   1.908   3.329  1.1702 -0.7099 -1.4623
   77UNK    F00  685   1.725   1.355   3.673  0.0394  0.4227  0.3989
   77UNK    C01  686   1.791   1.388   3.779 -0.2091  0.5305 -0.7117
   77UNK    H02  687   1.857   1.474   3.766 -1.4004  2.3310  3.6539
   77UNK    C03  688   1.825   1.302   3.873 -0.4771  0.3688 -0.5934
   77UNK    C04  689   1.922   1.328   3.983  0.8815 -0.2984  0.2355
   77UNK    F05  690   1.966   1.201   4.013  0.1296 -0.2846  0.6554
   77UNK    F06  691   2.027   1.398   3.941 -0.2018 -0.0804 -0.4183
   77UNK    F07  692   1.870   1.374   4.102  0.0136  0.1778 -0.4819
   77UNK    H08  693   1.803   1.197   3.862 -0.7514  0.2684  0.8083
   78UNK    F00  694   4.122   1.083   3.193  0.2665  0.7094  0.2362
   78UNK    C01  695   4.116   0.980   3.283 -0.0864  0.0625 -0.2675
   78UNK    H02  696   4.048   0.998   3.366 -4.0760  0.6464 -3.3101
   78UNK    C03  697   4.228   0.901   3.285  0.3751 -0.7335 -0.0370
   78UNK    C04  698   4.242   0.765   3.342  0.2819  0.0196  0.5903
   78UNK    F05  699   4.189   0.761   3.458  0.6036  0.1065 -0.1852
   78UNK    F06  700   4.192   0.668   3.265 -0.3682 -0.3848  0.5600
   78UNK    F07  701   4.372   0.736   3.360  0.0231 -0.0937  0.1890
   78UNK    H08  702   4.309   0.920   3.216 -0.3269  0.5585 -0.5633
   79UNK    F00  703   2.686   0.711   3.981 -0.1621  0.3144 -0.1411
   79UNK    C01  704   2.702   0.578   3.964 -1.1135 -0.0468  0.0160
   79UNK    H02  705   2.766   0.537   4.042  1.3596  3.2748 -0.0892
   79UNK    C03  706   2.658   0.512   3.863 -0.4410  0.8931 -0.1083
   79UNK    C04  707   2.738   0.491   3.738 -0.6188  0.1416 -0.8276
   79UNK    F05  708   2.821   0.593   3.725 -0.3972 -0.0112  0.6373
   79UNK    F06  709   2.815   0.375   3.748  0.2310  0.4878  0.2895
   79UNK    F07  710   2.660   0.478   3.633  0.6286 -0.5727  0.1095
   79UNK    H08  711   2.603   0.423   3.892  0.8723 -0.4116 -1.4691
   80UNK    F00  712   0.903   0.284   1.282 -0.5186 -0.1447  0.6688
   80UNK    C01  713   1.031   0.313   1.269  0.4034  0.2470  0.7296
   80UNK    H02  714   1.055   0.347   1.168  1.1269 -0.1218  0.7746
   80UNK    C03  715   1.106   0.240   1.345 -0.2498  0.0179 -0.1657
   80UNK    C04  716   1.248   0.263   1.360  0.1701  0.5409  0.1281
   80UNK    F05  717   1.319   0.161   1.421  0.0717 -0.3196  0.3139
   80UNK    F06  718   1.309   0.281   1.240 -0.1310  0.1018  0.0616
   80UNK    F07  719   1.265   0.383   1.426  0.6082 -0.0771 -0.2263
   80UNK    H08  720   1.067   0.187   1.431 -1.7847  1.7811  0.2847
   81UNK    F00  721   4.530   1.564   0.041 -0.4073 -0.3005  0.1765
   81UNK    C01  722   4.441   1.573  -0.060  0.0438  0.5600 -0.3764
   81UNK    H02  723   4.494   1.541  -0.150  1.8639 -1.0913  1.1680
   81UNK    C03  724   4.309   1.580  -0.034  0.3886  0.2232 -0.3332
   81UNK    C04  725   4.238   1.708  -0.019  0.2907 -0.1362  0.1683
   81UNK    F05  726   4.321   1.804   0.040 -0.3524 -0.0701 -0.0752
   81UNK    F06  727   4.205   1.759  -0.143  0.0983 -0.2584 -0.3956
   81UNK    F07  728   4.125   1.694   0.058 -0.5263 -0.2040  0.3246
   81UNK    H08  729   4.249   1.492  -0.016 -0.9654  1.4456  1.5604
   82UNK    F00  730   0.269   2.845   0.090  0.1103  0.2231  0.2135
   82UNK    C01  731   0.332   2.854   0.206  0.3003  0.4211 -0.0816
   82UNK    H02  732   0.262   2.886   0.283  0.0464 -2.1817  0.8718
   82UNK    C03  733   0.462   2.886   0.193  0.0438 -0.1802 -0.4239
   82UNK    C04  734   0.576   2.853   0.280  0.3927  0.0299 -0.0206
   82UNK    F05  735   0.533   2.840   0.408  0.4180 -0.0886  0.2294
   82UNK    F06  736   0.634   2.737   0.231  0.3192 -0.7629 -0.2902
   82UNK    F07  737   0.670   2.943   0.272  0.1561  0.0330 -0.7206
   82UNK    H08  738   0.498   2.890   0.091  1.4632 -0.5899  0.0385
   83UNK    F00  739   1.053   0.642   4.764  0.5914 -0.1593 -0.2667
   83UNK    C01  740   0.929   0.648   4.821 -0.3817 -0.5009  0.2523
   83UNK    H02  741   0.894   0.750   4.809 -2.1618 -1.3202 -2.2799
   83UNK    C03  742   0.858   0.539   4.842  0.8186 -0.4649 -0.7569
   83UNK    C04  743   0.714   0.539   4.827  0.3867  1.0368 -0.9152
   83UNK    F05  744   0.673   0.570   4.705  0.4490 -0.6390  0.2798
   83UNK    F06  745   0.642   0.430   4.860 -0.1352  0.5765 -0.0467
   83UNK    F07  746   0.655   0.626   4.908  0.1311  0.2355  0.0013
   83UNK    H08  747   0.895   0.460   4.905 -2.2670 -0.5130  1.1746
   84UNK    F00  748   2.578   2.363   1.374  0.2357  0.5387 -0.0784
   84UNK    C01  749   2.500   2.368   1.482  0.0121  0.2731  0.5550
   84UNK    H02  750   2.402   2.404   1.452  1.3607  3.0746 -0.9728
   84UNK    C03  751   2.554   2.379   1.599  0.1428 -0.1962 -0.5635
   84UNK    C04  752   2.542   2.502   1.679  0.8075 -0.1924  0.7679
   84UNK    F05  753   2.609   2.605   1.620 -0.0665  0.0130  0.4977
   84UNK    F06  754   2.410   2.533   1.710  0.2610  0.0760 -0.2932
   84UNK    F07  755   2.603   2.497   1.803  0.0775 -0.1302  0.3910
   84UNK    H08  756   2.603   2.302   1.656  0.8121  0.4950 -0.1733
   85UNK    F00  757   1.920   2.147   2.026  0.7207 -0.1259 -0.2641
   85UNK    C01  758   1.968   2.072   1.931 -0.0771  0.8559  0.6292
   85UNK    H02  759   2.054   2.115   1.881  1.2068 -2.0969  0.0938
   85UNK    C03  760   1.893   1.968   1.893 -0.1270 -0.4544  0.5537
   85UNK    C04  761   1.811   1.887   1.980 -0.7493 -0.5450  0.0065
   85UNK    F05  762   1.861   1.863   2.100 -0.1058 -0.1759 -0.2928
   85UNK    F06  763   1.699   1.959   2.020 -0.6669 -0.0052  0.2841
   85UNK    F07  764   1.780   1.771   1.910  0.1903 -0.0988 -0.0710
   85UNK    H08  765   1.901   1.924   1.794 -1.6347  5.2992 -2.6018
   86UNK    F00  766   1.019   3.690   4.443  0.3162 -0.2787  0.1477
   86UNK    C01  767   1.132   3.738   4.405 -0.0757 -0.5525  0.1312
   86UNK    H02  768   1.148   3.719   4.299 -2.0107 -0.1495 -0.2749
   86UNK    C03  769   1.219   3.763   4.506  0.1663  0.0082  0.2399
   86UNK    C04  770   1.297   3.662   4.584 -0.7113  0.4555 -0.6662
   86UNK    F05  771   1.332   3.719   4.703 -0.0077 -0.0315  0.6297
   86UNK    F06  772   1.231   3.543   4.594 -1.2395  0.2156 -0.3959
   86UNK    F07  773   1.419   3.634   4.531 -0.0085 -0.0912  0.0296
   86UNK    H08  774   1.241   3.864   4.536  1.5617 -0.4426  0.8113
   87UNK    F00  775   0.322   0.740   2.747  0.2535  0.2338 -0.3742
   87UNK    C01  776   0.226   0.749   2.840 -0.4644  0.3545  0.5532
   87UNK    H02  777   0.270   0.753   2.940  1.0192 -2.4748  0.1141
   87UNK    C03  778   0.103   0.726   2.803  0.6758 -0.0279  0.5528
   87UNK    C04  779   0.063   0.596   2.749 -0.7880 -0.2546  0.1824
   87UNK    F05  780  -0.067   0.609   2.716  0.3851  0.1017  0.2881
   87UNK    F06  781   0.132   0.552   2.635  0.2636 -0.4810  0.0961
   87UNK    F07  782   0.079   0.505   2.845  0.2469  0.3235 -0.1649
   87UNK    H08  783   0.023   0.792   2.832 -0.0718  0.1842 -1.7779
   88UNK    F00  784   2.055   1.538   4.780 -0.4548  0.1081  0.7539
   88UNK    C01  785   2.021   1.441   4.695 -0.3294  0.6418 -0.0867
   88UNK    H02  786   1.919   1.406   4.714 -0.6879  0.4656 -2.0871
   88UNK    C03  787   2.120   1.373   4.636  0.0884  0.2487  0.5025
   88UNK    C04  788   2.203   1.260   4.687  0.2590 -0.0385 -0.5662
   88UNK    F05  789   2.330   1.252   4.633  0.2773  0.1963 -0.5525
   88UNK    F06  790   2.218   1.277   4.823 -0.1349  0.5193  0.8745
   88UNK    F07  791   2.138   1.143   4.663 -0.0020  0.3817 -0.4767
   88UNK    H08  792   2.121   1.395   4.530  1.1606  0.9275  0.6415
   89UNK    F00  793   1.253   2.296   2.581 -0.1660  0.1336 -0.8787
   89UNK    C01  794   1.123   2.304   2.615  0.1661  0.0175 -0.1258
   89UNK    H02  795   1.063   2.343   2.533 -1.8861 -1.5269  0.5479
   89UNK    C03  796   1.088   2.250   2.734  0.2486 -0.2740  0.1221
   89UNK    C04  797   0.946   2.234   2.773 -0.6998  0.0352 -0.5847
   89UNK    F05  798   0.899   2.129   2.702 -0.1052 -0.3694  0.6171
   89UNK    F06  799   0.919   2.215   2.905  0.1875  0.1129  0.3480
   89UNK    F07  800   0.883   2.347   2.739 -0.4807 -0.2476  0.0837
   89UNK    H08  801   1.161   2.255   2.814  0.7788  1.2399 -0.4364
   90UNK    F00  802   0.666   1.541   4.355  0.2776  0.4980  0.0748
   90UNK    C01  803   0.666   1.407   4.360 -0.0640  0.5058 -0.4104
   90UNK    H02  804   0.765   1.368   4.382  0.4774  1.0526 -1.7581
   90UNK    C03  805   0.564   1.338   4.310 -0.0890 -0.3893 -0.1358
   90UNK    C04  806   0.433   1.404   4.284 -0.4936 -0.7840 -0.2450
   90UNK    F05  807   0.431   1.479   4.167  0.1074  0.5467 -0.4218
   90UNK    F06  808   0.316   1.327   4.290 -0.9360 -0.1790  0.0593
   90UNK    F07  809   0.422   1.496   4.389 -0.1189  0.3120  0.5366
   90UNK    H08  810   0.579   1.253   4.246  2.5166 -0.7231  0.7780
   91UNK    F00  811   3.382   0.131   0.225 -0.2542 -0.2255  0.0068
   91UNK    C01  812   3.380   0.146   0.090  0.5851  0.0029 -0.2121
   91UNK    H02  813   3.428   0.066   0.033 -0.1203  0.9913 -2.3030
   91UNK    C03  814   3.325   0.255   0.044  0.2147 -0.0451  0.4362
   91UNK    C04  815   3.356   0.394   0.093 -0.4713 -0.0271 -0.6550
   91UNK    F05  816   3.345   0.410   0.227 -0.0526 -0.3962  0.3457
   91UNK    F06  817   3.491   0.406   0.067 -0.2136 -0.4738  0.2670
   91UNK    F07  818   3.286   0.491   0.023  0.1273  0.0214  0.7747
   91UNK    H08  819   3.220   0.246   0.021  0.2634  0.5569 -0.0657
   92UNK    F00  820   4.324   0.868   0.170  0.0917  0.1492  0.1650
   92UNK    C01  821   4.428   0.918   0.233 -0.3449 -0.3412  0.0919
   92UNK    H02  822   4.446   1.024   0.217 -0.3128 -0.5824 -1.6080
   92UNK    C03  823   4.517   0.832   0.268 -0.5386 -0.2662  0.3178
   92UNK    C04  824   4.578   0.803   0.400  0.0284 -0.3040 -1.1403
   92UNK    F05  825   4.624   0.915   0.454 -0.6268 -0.4793 -0.1115
   92UNK    F06  826   4.478   0.754   0.483 -0.3362 -0.1179 -0.2398
   92UNK    F07  827   4.676   0.716   0.391  0.5901  0.2097  0.1308
   92UNK    H08  828   4.532   0.751   0.199 -3.1986 -0.0171 -0.6655
   93UNK    F00  829   1.079   4.405   3.667  0.5335 -0.1849 -0.4819
   93UNK    C01  830   0.951   4.420   3.617 -0.4615 -0.4984 -0.1096
   93UNK    H02  831   0.900   4.499   3.673 -1.5066 -0.7914 -0.6166
   93UNK    C03  832   0.907   4.348   3.519  0.5787  0.3145 -0.5293
   93UNK    C04  833   0.795   4.392   3.431 -0.7321  0.1182  0.7480
   93UNK    F05  834   0.844   4.467   3.331  0.2882  0.3157  0.3474
   93UNK    F06  835   0.728   4.286   3.374 -0.4738 -0.5821  0.0906
   93UNK    F07  836   0.696   4.461   3.489 -0.2769 -0.5188 -0.3761
   93UNK    H08  837   0.970   4.264   3.494 -0.5718 -0.9609  0.7110
   94UNK    F00  838   2.617   4.744   0.435 -0.1262 -0.6184  0.1284
   94UNK    C01  839   2.715   4.813   0.496  0.1707 -0.1560 -0.5002
   94UNK    H02  840   2.814   4.786   0.460 -0.1554 -1.3164 -0.5579
   94UNK    C03  841   2.669   4.888   0.595 -0.5439 -0.2821 -0.5496
   94UNK    C04  842   2.727   5.013   0.642 -0.0866  0.2798 -0.0381
   94UNK    F05  843   2.727   5.110   0.542  0.3083 -0.0160 -0.9424
   94UNK    F06  844   2.681   5.067   0.757 -0.1809 -0.3001  0.1817
   94UNK    F07  845   2.853   4.976   0.661 -0.2339 -0.3828 -0.5645
   94UNK    H08  846   2.648   4.837   0.687  0.6270  0.0339 -0.0927
   95UNK    F00  847   2.185   1.241   0.612 -0.1087 -0.0210  0.3042
   95UNK    C01  848   2.076   1.164   0.615 -0.6341  0.5791 -0.4581
   95UNK    H02  849   1.989   1.229   0.617 -0.4391  0.8247  0.4065
   95UNK    C03  850   2.079   1.030   0.596  0.2938 -0.1595  0.6742
   95UNK    C04  851   2.089   0.939   0.705  0.4112  0.2602 -0.7734
   95UNK    F05  852   1.969   0.933   0.775 -0.2107  0.0648  0.4102
   95UNK    F06  853   2.117   0.814   0.648 -0.2932 -0.0982  0.1633
   95UNK    F07  854   2.193   0.967   0.792  0.6424 -0.1278 -0.2094
   95UNK    H08  855   2.024   0.985   0.514  0.5390  2.8516 -1.2934
   96UNK    F00  856   2.655   3.951   0.914  0.0482 -0.3543  0.1478
   96UNK    C01  857   2.785   3.975   0.901  0.0828  0.4321 -0.1700
   96UNK    H02  858   2.809   4.018   0.803 -1.2350 -1.2033 -1.2844
   96UNK    C03  859   2.867   3.883   0.957  0.4600 -0.1839 -0.0269
   96UNK    C04  860   2.928   3.767   0.893  0.2136 -0.7143 -0.3400
   96UNK    F05  861   3.046   3.800   0.833  0.2813  0.1538 -0.5929
   96UNK    F06  862   2.958   3.658   0.969 -0.2144  0.5424  0.4335
   96UNK    F07  863   2.866   3.716   0.787 -0.6054  0.2493 -0.5705
   96UNK    H08  864   2.928   3.914   1.040  0.2004 -1.5287  0.6914
   97UNK    F00  865   0.299   0.802   0.318 -0.0349 -0.2585 -0.2837
   97UNK    C01  866   0.277   0.698   0.248 -0.1040  0.1924  0.0625
   97UNK    H02  867   0.369   0.650   0.216 -0.2778 -0.4429  0.4868
   97UNK    C03  868   0.157   0.644   0.239 -0.3329 -0.9803  0.2256
   97UNK    C04  869   0.143   0.519   0.165 -0.4431 -0.0840  1.2570
   97UNK    F05  870   0.167   0.411   0.242  0.4820 -0.4712 -0.0391
   97UNK    F06  871   0.019   0.504   0.108  0.0510  0.4602  0.2734
   97UNK    F07  872   0.232   0.521   0.060  0.2575  0.0561 -0.2026
   97UNK    H08  873   0.074   0.667   0.304 -0.2421 -1.7075  0.6133
   98UNK    F00  874   3.277   3.433   4.093  0.6003  0.0479  0.4136
   98UNK    C01  875   3.330   3.541   4.040 -0.6073 -0.3523  0.1456
   98UNK    H02  876   3.435   3.536   4.010 -1.3114 -0.9382 -2.4397
   98UNK    C03  877   3.241   3.634   3.998 -0.3663 -0.0567 -0.3919
   98UNK    C04  878   3.160   3.732   4.075 -0.1407 -0.1497  0.2201
   98UNK    F05  879   3.150   3.696   4.206 -0.2808  0.1547 -0.2052
   98UNK    F06  880   3.213   3.860   4.072  0.0239 -0.3421  0.1775
   98UNK    F07  881   3.031   3.724   4.028 -0.4983  0.1109  0.5969
   98UNK    H08  882   3.250   3.661   3.894  0.3658 -0.9689 -0.5840
   99UNK    F00  883   1.871   1.271   1.218  0.4937  0.2913 -0.4045
   99UNK    C01  884   1.887   1.404   1.214  0.2891  0.2989 -0.5581
   99UNK    H02  885   1.805   1.456   1.264  0.1144 -0.4561 -0.0391
   99UNK    C03  886   1.988   1.467   1.162 -0.3080 -0.2881  0.3686
   99UNK    C04  887   2.004   1.614   1.165  0.0354  0.0099 -0.1760
   99UNK    F05  888   1.894   1.690   1.155 -0.0199  0.3538 -0.1390
   99UNK    F06  889   2.070   1.651   1.274  0.1162  0.2374 -0.1291
   99UNK    F07  890   2.089   1.641   1.064 -0.5596  0.1034 -0.1320
   99UNK    H08  891   2.084   1.420   1.172  0.2222  0.3605 -1.1950
  100UNK    F00  892   2.029   1.126   2.085 -0.3267 -0.0295  0.3492
  100UNK    C01  893   2.085   1.247   2.069 -0.1410  0.5129  0.3562
  100UNK    H02  894   2.149   1.251   1.980 -1.4313  0.7531 -0.5880
  100UNK    C03  895   2.064   1.337   2.158  0.2516  0.4961 -0.7429
  100UNK    C04  896   2.081   1.479   2.132  1.3077 -0.1096  0.5362
  100UNK    F05  897   2.022   1.511   2.016  0.7911 -0.4238  0.1286
  100UNK    F06  898   2.044   1.562   2.230 -0.0351  0.2512 -0.0761
  100UNK    F07  899   2.207   1.505   2.107  0.2968 -0.1759  0.3644
  100UNK    H08  900   1.995   1.314   2.237  1.6472  0.7161  0.5758
  101UNK    F00  901   3.559   2.527   0.796  0.0142  0.2215 -0.1243
  101UNK    C01  902   3.631   2.624   0.858  0.4683  0.3585  0.7485
  101UNK    H02  903   3.703   2.667   0.788 -0.3175  0.6750  0.1162
  101UNK    C03  904   3.636   2.620   0.988 -0.4374 -0.5161  0.2039
  101UNK    C04  905   3.659   2.726   1.081  0.0546  0.3557 -0.5030
  101UNK    F05  906   3.776   2.790   1.050  0.6793 -0.0763 -0.1306
  101UNK    F06  907   3.555   2.814   1.084  0.4957 -0.5157  0.0602
  101UNK    F07  908   3.666   2.674   1.206 -0.6679  0.6042  0.8146
  101UNK    H08  909   3.678   2.528   1.025 -2.6351 -1.3354  0.8275
  102UNK    F00  910   2.060   4.070   0.608  0.1065 -0.3090  0.2783
  102UNK    C01  911   2.015   3.961   0.668 -0.5008 -0.4492 -0.3220
  102UNK    H02  912   2.103   3.907   0.703  1.3102  2.2840 -0.3557
  102UNK    C03  913   1.905   3.983   0.738 -0.0713  0.6365  0.9674
  102UNK    C04  914   1.878   3.918   0.867  0.6283  0.0521  0.4113
  102UNK    F05  915   1.977   3.951   0.958  0.5363  0.1342  0.1736
  102UNK    F06  916   1.760   3.967   0.917  0.0300  0.4273 -0.6414
  102UNK    F07  917   1.860   3.783   0.853 -1.1358 -0.7586  0.1794
  102UNK    H08  918   1.855   4.078   0.728  1.0347  1.1662  0.2506
  103UNK    F00  919   1.893   2.899   0.643 -0.3524  0.1593  0.4888
  103UNK    C01  920   1.881   2.818   0.751 -0.7799  0.1266  0.3967
  103UNK    H02  921   1.940   2.856   0.834 -1.1641  1.7653 -0.0431
  103UNK    C03  922   1.787   2.727   0.767  0.2827 -0.6470 -0.4036
  103UNK    C04  923   1.817   2.603   0.840 -0.6019 -0.2754 -0.0660
  103UNK    F05  924   1.941   2.549   0.812 -0.7594 -0.2811  0.1749
  103UNK    F06  925   1.808   2.641   0.972  0.0993 -0.4140  0.6441
  103UNK    F07  926   1.726   2.503   0.831  0.2159  0.9961  0.0418
  103UNK    H08  927   1.713   2.711   0.690 -0.6250 -1.1449  0.5478
  104UNK    F00  928   4.233   2.515   1.351 -0.0316  0.4035 -0.1795
  104UNK    C01  929   4.181   2.434   1.442  0.2121 -0.2302 -0.1229
  104UNK    H02  930   4.092   2.376   1.417 -0.3875 -0.2271  1.8256
  104UNK    C03  931   4.232   2.433   1.565  0.2446  0.1778  0.1684
  104UNK    C04  932   4.372   2.387   1.579 -0.0336 -0.5418  0.8582
  104UNK    F05  933   4.466   2.483   1.564  0.1407  0.5131 -0.0709
  104UNK    F06  934   4.389   2.329   1.698  0.3232  0.2455  0.1579
  104UNK    F07  935   4.391   2.286   1.495 -0.3531 -0.3913  0.0452
  104UNK    H08  936   4.163   2.425   1.648 -2.0960  0.7467 -1.6112
  105UNK    F00  937   2.558   2.248   4.751  0.4337  0.1707  0.4570
  105UNK    C01  938   2.674   2.186   4.755 -0.1516  0.0894 -0.5643
  105UNK    H02  939   2.764   2.247   4.751  0.4374 -0.8049 -1.6930
  105UNK    C03  940   2.671   2.054   4.750  1.0660  0.3013 -0.1983
  105UNK    C04  941   2.695   1.990   4.614  0.2269  0.5866  0.3090
  105UNK    F05  942   2.596   2.024   4.529  0.3637 -0.0593 -0.4024
  105UNK    F06  943   2.811   2.015   4.547  0.1857  0.3088  0.3138
  105UNK    F07  944   2.686   1.855   4.625 -0.0181  0.0761 -0.3394
  105UNK    H08  945   2.597   2.002   4.809  2.5036 -0.1670  1.2547
  106UNK    F00  946   2.081   4.482   2.914  0.0239 -0.4582  0.2293
  106UNK    C01  947   2.008   4.458   3.018  0.4154 -0.3429  0.0509
  106UNK    H02  948   1.935   4.536   3.034  0.2665 -0.9143  2.5949
  106UNK    C03  949   2.051   4.358   3.100  0.0139 -0.2849 -0.5864
  106UNK    C04  950   1.983   4.306   3.214 -0.4718  0.4995  0.1043
  106UNK    F05  951   1.888   4.399   3.255 -0.2256 -0.4237 -0.0716
  106UNK    F06  952   1.920   4.189   3.176 -0.4685  0.2445  0.4560
  106UNK    F07  953   2.057   4.266   3.324  0.5939  0.0117 -0.2789
  106UNK    H08  954   2.149   4.314   3.092 -0.6017 -1.5326 -1.7413
  107UNK    F00  955   2.535   1.279   3.290 -0.0907 -0.5579 -0.4687
  107UNK    C01  956   2.451   1.300   3.392  0.1034  0.1851  0.3507
  107UNK    H02  957   2.439   1.210   3.453 -1.5935  0.1695  0.0574
  107UNK    C03  958   2.442   1.428   3.421 -0.2873  0.2264  0.2611
  107UNK    C04  959   2.404   1.472   3.553 -0.0986 -0.2176 -0.3100
  107UNK    F05  960   2.384   1.607   3.537  0.4035 -0.0903 -0.5422
  107UNK    F06  961   2.286   1.413   3.600  0.3159  0.4763 -0.1804
  107UNK    F07  962   2.507   1.450   3.638 -0.5041  0.1319  0.4812
  107UNK    H08  963   2.400   1.489   3.342  1.2107  3.4690  1.8131
  108UNK    F00  964   3.000   3.287   0.786  0.4426  0.2944  0.2828
  108UNK    C01  965   2.950   3.399   0.742 -0.1738 -0.5003  0.2222
  108UNK    H02  966   3.028   3.471   0.718  0.0201 -1.2474 -1.5598
  108UNK    C03  967   2.818   3.422   0.753 -0.8183 -0.1373  0.2102
  108UNK    C04  968   2.729   3.332   0.682 -0.4659 -0.3838 -0.9416
  108UNK    F05  969   2.734   3.202   0.726  0.1372  0.2425 -0.0993
  108UNK    F06  970   2.606   3.381   0.704 -0.3052 -0.2029 -0.1061
  108UNK    F07  971   2.756   3.337   0.549  0.0931  0.4054 -0.2292
  108UNK    H08  972   2.780   3.472   0.841  2.6531  0.4750  1.5256
  109UNK    F00  973   1.154   4.754   3.492 -0.2985 -0.4066 -0.1308
  109UNK    C01  974   1.280   4.801   3.512  0.0579  0.6868 -0.1255
  109UNK    H02  975   1.352   4.720   3.518 -0.9861 -0.3039 -0.5660
  109UNK    C03  976   1.309   4.929   3.520  0.2138 -0.0984  0.0096
  109UNK    C04  977   1.435   4.975   3.580 -0.2562  0.0574  0.5700
  109UNK    F05  978   1.430   5.109   3.604 -0.4061  0.4277 -0.2952
  109UNK    F06  979   1.466   4.903   3.692 -1.0500 -0.3163  0.1340
  109UNK    F07  980   1.541   4.951   3.494  0.4220 -0.7560  0.0066
  109UNK    H08  981   1.258   5.003   3.459  3.2705  1.1331 -1.2557
  110UNK    F00  982   4.159   0.269   0.047 -0.4602  0.3014  0.3180
  110UNK    C01  983   4.090   0.315  -0.061 -0.4634  0.5172 -0.0711
  110UNK    H02  984   4.122   0.262  -0.151 -1.7872 -1.1497  0.3975
  110UNK    C03  985   3.996   0.406  -0.046  0.0792 -0.5222 -0.0476
  110UNK    C04  986   3.887   0.420  -0.138 -0.3929 -0.5964  0.1342
  110UNK    F05  987   3.916   0.387  -0.265 -0.0405  0.3423 -0.4879
  110UNK    F06  988   3.772   0.360  -0.111  0.2613 -0.3753 -0.6384
  110UNK    F07  989   3.860   0.557  -0.145  0.4562 -0.3421  0.2536
  110UNK    H08  990   4.019   0.496   0.009 -0.6096 -0.1187 -0.4025
  111UNK    F00  991   0.991   2.661   0.073 -0.2125  0.0265  0.1461
  111UNK    C01  992   0.977   2.667   0.209 -0.6464  0.8936  0.3887
  111UNK    H02  993   0.886   2.621   0.246  0.2423  0.8788  2.7356
  111UNK    C03  994   1.083   2.698   0.290  0.6496 -0.3639 -0.0381
  111UNK    C04  995   1.087   2.660   0.431 -0.4024 -0.0681  0.0928
  111UNK    F05  996   1.009   2.751   0.491 -0.3463  0.2889  0.3649
  111UNK    F06  997   1.031   2.540   0.457 -0.1003  0.3718 -0.3860
  111UNK    F07  998   1.214   2.691   0.473 -0.3523 -0.2559 -0.0251
  111UNK    H08  999   1.158   2.765   0.252  1.2925 -1.5907 -1.0199
  112UNK    F00 1000   4.598   0.669   1.302 -0.0324 -0.2144  0.6298
  112UNK    C01 1001   4.670   0.742   1.391  0.6318  0.5685  0.2144
  112UNK    H02 1002   4.615   0.826   1.434  0.1423 -0.5036  1.7678
  112UNK    C03 1003   4.794   0.706   1.415 -0.2547 -0.0259 -0.1690
  112UNK    C04 1004   4.854   0.743   1.538 -0.1180  0.5587 -0.2146
  112UNK    F05 1005   4.836   0.865   1.584  0.4736 -0.0352  0.6558
  112UNK    F06 1006   4.816   0.649   1.628 -0.2765  0.1211 -0.2852
  112UNK    F07 1007   4.990   0.726   1.532 -0.2457 -0.2099 -0.2813
  112UNK    H08 1008   4.862   0.723   1.332 -1.4556  1.2236 -0.9540
  113UNK    F00 1009   3.372   0.290   2.571 -0.1571  0.1449  0.0107
  113UNK    C01 1010   3.401   0.310   2.439  0.5007 -0.1392 -0.3448
  113UNK    H02 1011   3.469   0.393   2.423  0.2992 -0.0765 -0.9002
  113UNK    C03 1012   3.336   0.234   2.349 -0.1043  0.0529  0.4733
  113UNK    C04 1013   3.404   0.196   2.226  0.0752 -0.2077  0.1136
  113UNK    F05 1014   3.522   0.124   2.244 -0.0851  0.5585  0.1011
  113UNK    F06 1015   3.335   0.118   2.138  0.1918  0.7887 -0.0991
  113UNK    F07 1016   3.424   0.309   2.150 -0.6942 -0.3832 -0.6700
  113UNK    H08 1017   3.275   0.153   2.387 -0.3863  0.3855  0.7392
  114UNK    F00 1018   2.201   4.497   3.728 -0.0319  0.7983 -0.1404
  114UNK    C01 1019   2.135   4.378   3.732 -0.1473  0.2472 -0.2738
  114UNK    H02 1020   2.082   4.363   3.826 -1.5528 -1.5912 -1.3004
  114UNK    C03 1021   2.093   4.312   3.625 -0.0823  0.7329 -0.1266
  114UNK    C04 1022   2.002   4.193   3.640 -0.4983  0.2854  0.0980
  114UNK    F05 1023   1.869   4.217   3.652  0.0785 -0.2560  0.4414
  114UNK    F06 1024   2.011   4.104   3.540 -0.1881  0.0446  0.0258
  114UNK    F07 1025   2.023   4.128   3.757 -0.4319 -0.0786 -0.2338
  114UNK    H08 1026   2.141   4.320   3.528  0.1204 -0.9775 -0.1942
  115UNK    F00 1027   0.526   3.590   4.269 -0.0733 -0.1067  0.2695
  115UNK    C01 1028   0.655   3.584   4.301 -0.7363 -0.5654 -0.0446
  115UNK    H02 1029   0.704   3.536   4.216 -0.6913  0.4448 -0.5991
  115UNK    C03 1030   0.714   3.664   4.391  0.4628  0.0635 -0.1305
  115UNK    C04 1031   0.693   3.659   4.534  0.5043 -0.1105 -0.9111
  115UNK    F05 1032   0.562   3.645   4.555  0.5122  0.2653 -0.2387
  115UNK    F06 1033   0.749   3.553   4.596 -0.2252 -0.2367  0.0323
  115UNK    F07 1034   0.745   3.761   4.601  0.1014  0.7880  0.1339
  115UNK    H08 1035   0.772   3.749   4.359 -1.4769  0.9611 -1.4676
  116UNK    F00 1036   3.117   1.343   0.967  0.1702  0.0561  0.4304
  116UNK    C01 1037   3.018   1.416   0.909  0.4001  0.2600 -0.2848
  116UNK    H02 1038   3.025   1.523   0.933  0.9332  0.1783 -0.0602
  116UNK    C03 1039   2.926   1.364   0.833  0.4906  0.3524 -0.6700
  116UNK    C04 1040   2.800   1.294   0.877 -0.1507 -0.5317 -0.1600
  116UNK    F05 1041   2.751   1.210   0.781 -0.4443 -0.1330  0.7024
  116UNK    F06 1042   2.811   1.230   1.003  0.3367 -0.5251 -0.0615
  116UNK    F07 1043   2.716   1.405   0.896  0.0947  0.0388 -0.4546
  116UNK    H08 1044   2.927   1.379   0.726  0.4528 -0.0431 -0.7292
  117UNK    F00 1045   1.575   3.260   1.770  0.0254  0.6051 -0.4127
  117UNK    C01 1046   1.618   3.185   1.668  0.5817 -0.4459 -0.0240
  117UNK    H02 1047   1.571   3.190   1.570  1.8330 -0.6942 -0.6584
  117UNK    C03 1048   1.746   3.146   1.684  0.4394  0.3844  0.1248
  117UNK    C04 1049   1.838   3.157   1.571 -0.0150  0.3553 -0.2447
  117UNK    F05 1050   1.867   3.286   1.547  0.0382  0.2488 -0.1788
  117UNK    F06 1051   1.958   3.109   1.610 -0.2256 -0.3299  0.1864
  117UNK    F07 1052   1.797   3.093   1.457 -0.5773  0.1020 -0.6248
  117UNK    H08 1053   1.795   3.165   1.778  0.0051  0.9717  0.2392
  118UNK    F00 1054   0.654   2.414   4.240 -0.5047 -0.1310 -0.1036
  118UNK    C01 1055   0.619   2.360   4.357 -0.2774 -0.1368  1.0211
  118UNK    H02 1056   0.522   2.392   4.395 -0.1073  2.0777 -0.2205
  118UNK    C03 1057   0.718   2.298   4.420 -0.1678  0.2182  0.2078
  118UNK    C04 1058   0.830   2.360   4.494  0.0831  1.0360  0.0928
  118UNK    F05 1059   0.798   2.415   4.611 -0.1359  0.2884 -0.1145
  118UNK    F06 1060   0.928   2.265   4.529  0.2138 -0.2077 -0.1821
  118UNK    F07 1061   0.891   2.458   4.425 -0.1380 -0.2432 -0.1803
  118UNK    H08 1062   0.742   2.209   4.365  0.0383 -0.0174  0.6715
  119UNK    F00 1063   3.228   0.578   2.564  0.3292 -0.1259  0.1846
  119UNK    C01 1064   3.271   0.623   2.448  0.1577 -0.1881 -0.4019
  119UNK    H02 1065   3.200   0.602   2.368 -0.9370  1.1324  0.1860
  119UNK    C03 1066   3.365   0.708   2.429 -0.1603 -0.5677 -0.4673
  119UNK    C04 1067   3.413   0.752   2.298  1.0416  0.3270 -0.5441
  119UNK    F05 1068   3.310   0.810   2.227 -0.2739  0.5983  0.3650
  119UNK    F06 1069   3.507   0.848   2.317  0.3177  0.1487 -0.0255
  119UNK    F07 1070   3.466   0.645   2.226  0.1934 -0.4615 -0.0735
  119UNK    H08 1071   3.436   0.709   2.510 -3.0195  0.0675  2.2144
  120UNK    F00 1072   2.277   3.771   3.024  0.2294  0.0052  0.0838
  120UNK    C01 1073   2.339   3.696   2.934  0.6006 -0.4153 -0.5012
  120UNK    H02 1074   2.396   3.758   2.865 -0.2614  1.8005  0.6861
  120UNK    C03 1075   2.325   3.564   2.940 -0.6888  0.8358  0.9757
  120UNK    C04 1076   2.347   3.467   2.827 -0.7190 -0.2923  0.4918
  120UNK    F05 1077   2.476   3.480   2.785 -0.3423 -0.1378  0.0307
  120UNK    F06 1078   2.340   3.330   2.858 -0.2898  0.0406  0.1267
  120UNK    F07 1079   2.268   3.488   2.718 -0.1027 -0.0305 -0.3188
  120UNK    H08 1080   2.319   3.509   3.033 -1.7631 -2.2656 -0.7392
  121UNK    F00 1081   2.398   4.347   3.014 -0.0411 -0.0928  0.1532
  121UNK    C01 1082   2.522   4.298   2.991  0.2621 -0.3355 -0.5178
  121UNK    H02 1083   2.565   4.347   2.904 -0.4162 -0.8570 -1.1589
  121UNK    C03 1084   2.554   4.176   3.031  0.0376 -0.2290 -0.4329
  121UNK    C04 1085   2.454   4.070   3.006  0.0950 -0.2809 -0.5742
  121UNK    F05 1086   2.360   4.105   2.916  0.6652 -0.6021 -0.0696
  121UNK    F06 1087   2.516   3.958   2.954 -0.1913  0.0524 -0.2389
  121UNK    F07 1088   2.413   4.032   3.130 -0.5051  0.1566 -0.9991
  121UNK    H08 1089   2.655   4.140   3.030  0.2977  0.4965 -1.4167
  122UNK    F00 1090   0.541   0.136   0.920 -0.3776 -0.2365  0.0492
  122UNK    C01 1091   0.658   0.188   0.966  0.4146  1.1462  0.3220
  122UNK    H02 1092   0.669   0.297   0.970  2.3573  0.9470  2.6423
  122UNK    C03 1093   0.733   0.125   1.053  0.7132 -0.7208 -0.1267
  122UNK    C04 1094   0.829   0.022   1.013 -0.2993  0.2966 -1.0005
  122UNK    F05 1095   0.791  -0.050   0.911  0.0979  0.0494  0.4079
  122UNK    F06 1096   0.947   0.070   0.984 -0.5300 -0.0160 -0.1911
  122UNK    F07 1097   0.846  -0.074   1.109  0.2044  0.5200 -0.0175
  122UNK    H08 1098   0.744   0.165   1.153  1.1161 -1.5896  0.1922
  123UNK    F00 1099   2.868   2.628   2.501  0.0417  0.4868 -0.0496
  123UNK    C01 1100   2.846   2.510   2.435  0.2988  0.3343 -0.2644
  123UNK    H02 1101   2.753   2.522   2.379  0.0196 -2.4591 -0.5088
  123UNK    C03 1102   2.877   2.393   2.495 -0.0747  0.1354  0.1176
  123UNK    C04 1103   2.956   2.283   2.441  0.0507 -0.2647  0.2197
  123UNK    F05 1104   3.085   2.308   2.470  0.3517 -0.2938  0.5605
  123UNK    F06 1105   2.919   2.167   2.502 -0.2785  0.0611 -0.4005
  123UNK    F07 1106   2.950   2.285   2.308  1.2123 -0.0527 -0.0260
  123UNK    H08 1107   2.862   2.385   2.601  1.3166 -0.2575  0.2967
  124UNK    F00 1108   1.589   1.453   2.670  0.1836 -0.2050  0.3285
  124UNK    C01 1109   1.485   1.369   2.658  0.0333 -0.0443 -0.2369
  124UNK    H02 1110   1.511   1.268   2.629  1.3783 -0.3470  1.7918
  124UNK    C03 1111   1.370   1.431   2.633  0.0570 -0.3404  0.8548
  124UNK    C04 1112   1.236   1.375   2.674 -0.3898  0.0802 -0.7360
  124UNK    F05 1113   1.128   1.443   2.629  0.0092 -0.0243 -0.4347
  124UNK    F06 1114   1.220   1.248   2.629  0.6513 -0.4088 -0.0564
  124UNK    F07 1115   1.231   1.379   2.807  0.2375 -0.2830 -0.3225
  124UNK    H08 1116   1.372   1.521   2.573  1.5823 -0.2620  1.0068
  125UNK    F00 1117   0.900   0.754   0.811  0.0824 -0.0751 -0.6163
  125UNK    C01 1118   0.838   0.799   0.703  0.3143 -0.4883  0.0321
  125UNK    H02 1119   0.763   0.875   0.722  0.3560 -0.5907  0.6365
  125UNK    C03 1120   0.887   0.762   0.585  0.3329  0.2288 -0.0784
  125UNK    C04 1121   0.831   0.811   0.457  0.3324  0.4468  0.1578
  125UNK    F05 1122   0.868   0.725   0.364 -0.0302  0.2465  0.3878
  125UNK    F06 1123   0.696   0.800   0.455 -0.3816 -0.1394 -0.3080
  125UNK    F07 1124   0.850   0.936   0.420  0.6748 -0.2527 -0.0610
  125UNK    H08 1125   0.938   0.669   0.569 -0.1853 -0.1226  0.2827
  126UNK    F00 1126   3.257   2.225   3.466 -0.1402 -0.0860 -0.5700
  126UNK    C01 1127   3.273   2.094   3.447  0.1168 -0.7001 -0.1682
  126UNK    H02 1128   3.225   2.037   3.526 -1.0764 -0.4513 -0.6977
  126UNK    C03 1129   3.359   2.050   3.362  0.0068  1.1265  0.0914
  126UNK    C04 1130   3.331   1.932   3.273 -0.0305 -0.0702 -0.6906
  126UNK    F05 1131   3.253   1.835   3.331 -0.2147  0.3200 -0.4756
  126UNK    F06 1132   3.256   1.969   3.172 -0.1515 -0.6965  0.3594
  126UNK    F07 1133   3.437   1.872   3.217 -0.1908 -0.4614  0.0820
  126UNK    H08 1134   3.464   2.076   3.370  1.4454 -3.4075 -0.7630
  127UNK    F00 1135   2.674   3.310   1.845  0.0559 -0.3164 -0.3758
  127UNK    C01 1136   2.798   3.332   1.893 -0.1780  0.0262  0.2797
  127UNK    H02 1137   2.864   3.246   1.885  2.4017  1.7166  1.8945
  127UNK    C03 1138   2.836   3.445   1.953  0.7417 -0.0665  0.8796
  127UNK    C04 1139   2.972   3.505   1.956 -0.5767 -0.1734 -0.3182
  127UNK    F05 1140   2.967   3.605   2.044 -0.0481  0.0597  0.4144
  127UNK    F06 1141   3.079   3.429   1.996 -0.5740 -0.1934 -0.4373
  127UNK    F07 1142   2.999   3.556   1.835  0.1425 -0.0730  0.0532
  127UNK    H08 1143   2.754   3.508   1.985  0.9487  1.0419 -0.6430
  128UNK    F00 1144   2.833   2.325   3.590  0.1194 -0.2815  0.8981
  128UNK    C01 1145   2.705   2.311   3.539 -0.4201 -0.0571  1.0949
  128UNK    H02 1146   2.668   2.213   3.569  0.7074 -0.8860 -0.1417
  128UNK    C03 1147   2.673   2.377   3.432 -0.0165 -0.1287 -0.3398
  128UNK    C04 1148   2.734   2.356   3.304  0.2391  0.1775 -0.0200
  128UNK    F05 1149   2.702   2.451   3.214 -0.0582 -0.3290  0.6147
  128UNK    F06 1150   2.866   2.339   3.315 -0.4122  0.3521 -0.8758
  128UNK    F07 1151   2.690   2.240   3.247 -0.1075  0.0822  0.3076
  128UNK    H08 1152   2.644   2.480   3.427 -0.0541 -0.1440 -0.4309
  129UNK    F00 1153   0.124   2.784   0.573 -0.0070 -0.5834  0.1799
  129UNK    C01 1154   0.192   2.899   0.577 -0.0223  0.1102  0.5131
  129UNK    H02 1155   0.296   2.868   0.578  0.1328  0.2174  4.9558
  129UNK    C03 1156   0.138   3.008   0.529  1.1601 -0.3855  0.2288
  129UNK    C04 1157   0.225   3.125   0.514 -0.0502  0.2515  0.1084
  129UNK    F05 1158   0.307   3.152   0.618 -0.4954  0.0256 -0.5366
  129UNK    F06 1159   0.309   3.084   0.414  0.0347  0.2147  0.6130
  129UNK    F07 1160   0.155   3.234   0.469  0.2992  0.3248  0.0986
  129UNK    H08 1161   0.065   3.005   0.450  1.4766 -1.8744 -0.0346
  130UNK    F00 1162   1.875   2.171   0.820  0.0899 -0.5521  0.0698
  130UNK    C01 1163   1.817   2.097   0.727  0.0597 -0.4744  0.2056
  130UNK    H02 1164   1.769   2.006   0.765 -0.6697 -0.4637 -0.6483
  130UNK    C03 1165   1.775   2.146   0.613 -0.1380 -0.8657 -0.0678
  130UNK    C04 1166   1.691   2.267   0.577 -0.4800  0.2312  0.4980
  130UNK    F05 1167   1.595   2.291   0.662 -0.0760  0.3743  0.2843
  130UNK    F06 1168   1.766   2.380   0.582 -0.1607 -0.0280 -0.2039
  130UNK    F07 1169   1.638   2.244   0.455  0.2149  0.3640 -0.1678
  130UNK    H08 1170   1.837   2.106   0.534 -1.2654 -1.6770 -0.5762
  131UNK    F00 1171   2.922   3.876   3.169  0.7762 -0.1097 -0.7447
  131UNK    C01 1172   2.988   3.788   3.095  0.4886 -1.1687  0.6138
  131UNK    H02 1173   3.007   3.690   3.139  2.4714 -2.4510 -2.7127
  131UNK    C03 1174   2.978   3.806   2.967  0.2684 -0.1670 -0.3286
  131UNK    C04 1175   2.855   3.862   2.916 -0.9109  0.5063 -0.0351
  131UNK    F05 1176   2.852   3.838   2.786 -0.0251 -0.0704  0.8853
  131UNK    F06 1177   2.743   3.806   2.971  0.3432  0.0492 -0.0439
  131UNK    F07 1178   2.851   3.995   2.940  0.6198  0.1652  0.0688
  131UNK    H08 1179   3.042   3.761   2.892 -1.0687  1.7304 -2.7834
  132UNK    F00 1180   3.104   3.120   4.033  0.6114  0.4266  0.0356
  132UNK    C01 1181   3.117   3.032   3.930 -0.4572 -0.8340  0.0486
  132UNK    H02 1182   3.028   2.969   3.929 -0.2765 -1.1571 -2.9432
  132UNK    C03 1183   3.233   3.023   3.875 -0.2596  0.6125 -0.4049
  132UNK    C04 1184   3.300   3.138   3.810  0.4112 -0.4984 -0.7044
  132UNK    F05 1185   3.218   3.186   3.711  0.2648 -0.0006 -0.2350
  132UNK    F06 1186   3.307   3.259   3.883 -0.8806 -0.0344 -0.2655
  132UNK    F07 1187   3.419   3.118   3.744  0.2754 -0.3275  0.0350
  132UNK    H08 1188   3.273   2.929   3.840  1.7745  1.1333  0.4138
  133UNK    F00 1189   3.715   3.003   1.187 -0.1216  0.3695 -0.0042
  133UNK    C01 1190   3.719   3.108   1.098 -0.0334  0.8308  0.2778
  133UNK    H02 1191   3.746   3.199   1.153  1.3434  0.0373  0.9582
  133UNK    C03 1192   3.654   3.095   0.986 -1.0162 -0.7323  0.1086
  133UNK    C04 1193   3.684   3.177   0.868  0.1560  0.0301 -0.0932
  133UNK    F05 1194   3.592   3.159   0.770  0.3090 -0.7515 -0.0991
  133UNK    F06 1195   3.691   3.304   0.899 -0.1427  0.0559 -0.9307
  133UNK    F07 1196   3.796   3.149   0.798  0.3398 -0.3550 -0.1220
  133UNK    H08 1197   3.630   2.995   0.952 -0.4921 -1.5356  1.9629
  134UNK    F00 1198   3.575   3.625   1.484 -0.2414 -0.1754 -0.3447
  134UNK    C01 1199   3.534   3.728   1.411 -0.8808 -0.1619 -0.3830
  134UNK    H02 1200   3.562   3.823   1.458  0.2027  0.6244 -2.5102
  134UNK    C03 1201   3.535   3.703   1.280  0.2072  0.7680 -0.5163
  134UNK    C04 1202   3.642   3.627   1.216 -0.2116 -0.3176  0.0792
  134UNK    F05 1203   3.617   3.493   1.212  0.0836 -0.2007 -0.4437
  134UNK    F06 1204   3.641   3.674   1.090 -0.6346 -0.1070 -0.0854
  134UNK    F07 1205   3.757   3.655   1.287  0.9962  0.0458  0.4735
  134UNK    H08 1206   3.444   3.719   1.225 -0.9341 -0.0284  1.0479
  135UNK    F00 1207   3.521   1.583   2.049 -0.5254 -0.2134  0.0892
  135UNK    C01 1208   3.539   1.479   2.129 -0.3645 -0.1421 -0.0470
  135UNK    H02 1209   3.595   1.398   2.082 -1.0442 -0.3432 -0.5290
  135UNK    C03 1210   3.501   1.499   2.248  0.7172 -0.1371 -0.2192
  135UNK    C04 1211   3.506   1.397   2.354  0.1870 -0.4047 -0.0192
  135UNK    F05 1212   3.426   1.419   2.459  0.3455  0.0074 -0.9458
  135UNK    F06 1213   3.470   1.279   2.297 -0.9859  0.2595  0.4726
  135UNK    F07 1214   3.623   1.375   2.409  0.3531 -0.5115  0.3250
  135UNK    H08 1215   3.418   1.565   2.270  0.2317 -0.8900  0.2698
  136UNK    F00 1216   4.307   0.356   4.077 -0.2553 -0.2469 -0.1584
  136UNK    C01 1217   4.277   0.227   4.082  0.5736  0.3248  0.3260
  136UNK    H02 1218   4.226   0.196   3.990 -1.6857  0.6815  1.3940
  136UNK    C03 1219   4.350   0.152   4.156 -0.5374  0.8556  0.0090
  136UNK    C04 1220   4.328   0.004   4.160 -0.8265  0.5158 -0.5116
  136UNK    F05 1221   4.383  -0.042   4.050 -0.2070 -0.0948  0.5607
  136UNK    F06 1222   4.372  -0.068   4.267  0.2007 -0.8324  0.1674
  136UNK    F07 1223   4.197  -0.021   4.153  0.2430  0.2395 -0.7381
  136UNK    H08 1224   4.445   0.192   4.190 -1.1855  2.0772  0.4296
  137UNK    F00 1225   4.406   3.948   0.029  0.2935  0.0873 -0.3840
  137UNK    C01 1226   4.470   4.062   0.005  0.1704 -0.7664 -0.0962
  137UNK    H02 1227   4.407   4.147  -0.018  0.2491 -0.3680  1.0891
  137UNK    C03 1228   4.592   4.059  -0.031 -0.6750 -0.7103  0.1857
  137UNK    C04 1229   4.649   4.009  -0.159  0.4650  0.6417  0.4404
  137UNK    F05 1230   4.618   3.871  -0.166 -0.3598 -0.5975 -0.0820
  137UNK    F06 1231   4.580   4.074  -0.257  0.2879  0.1088 -0.0857
  137UNK    F07 1232   4.780   4.025  -0.172 -0.2483  0.4123  0.2706
  137UNK    H08 1233   4.665   4.108   0.031 -0.8896 -1.5721  1.1569
  138UNK    F00 1234   2.850   2.323   0.398 -0.4021 -0.4381  0.0664
  138UNK    C01 1235   2.767   2.224   0.364 -0.3750 -0.5608  0.1492
  138UNK    H02 1236   2.762   2.235   0.255 -1.3032  0.3086  0.2647
  138UNK    C03 1237   2.759   2.121   0.437  0.7279 -0.0312  0.1368
  138UNK    C04 1238   2.724   1.994   0.373 -0.6573 -1.1259  0.5529
  138UNK    F05 1239   2.832   1.943   0.310  0.0100 -0.6183 -0.5245
  138UNK    F06 1240   2.682   1.894   0.448  0.1081 -0.0882  0.4497
  138UNK    F07 1241   2.622   2.014   0.287  0.0936  0.3281  0.3736
  138UNK    H08 1242   2.850   2.104   0.492  3.2789  1.8610 -3.1482
  139UNK    F00 1243   1.879   0.240   4.214  0.1102 -0.0388  0.4285
  139UNK    C01 1244   1.876   0.163   4.103  0.5690  0.3736 -0.1292
  139UNK    H02 1245   1.871   0.059   4.137 -0.0639  0.8893  1.4714
  139UNK    C03 1246   1.833   0.218   3.995 -0.1666 -0.3423 -0.4148
  139UNK    C04 1247   1.803   0.135   3.878 -0.1019  0.4754  0.5136
  139UNK    F05 1248   1.689   0.073   3.877 -0.0307  0.4922  0.8023
  139UNK    F06 1249   1.804   0.200   3.761 -0.7135 -0.3354 -0.5699
  139UNK    F07 1250   1.898   0.037   3.857  0.7289 -0.1202  0.1434
  139UNK    H08 1251   1.768   0.305   3.996  0.2148 -0.0371  1.3195
  140UNK    F00 1252   1.556   4.464   0.431 -0.2139 -0.5447 -0.3980
  140UNK    C01 1253   1.587   4.335   0.419 -0.2809 -0.0363 -0.1185
  140UNK    H02 1254   1.537   4.276   0.496  0.2639  1.0464  1.1226
  140UNK    C03 1255   1.687   4.305   0.340  0.0431  0.3418 -0.2152
  140UNK    C04 1256   1.830   4.346   0.343  0.2237  0.2569 -0.4544
  140UNK    F05 1257   1.901   4.271   0.429 -0.5919  0.1439  0.0245
  140UNK    F06 1258   1.885   4.322   0.224 -0.3654 -0.2949 -0.0108
  140UNK    F07 1259   1.851   4.477   0.358  0.8485 -0.8120  0.1824
  140UNK    H08 1260   1.669   4.219   0.277 -2.1764 -0.0749  0.8826
  141UNK    F00 1261   1.549   3.412   4.407  0.1649 -0.0491  0.1207
  141UNK    C01 1262   1.493   3.310   4.342  0.1693  0.0317 -0.8522
  141UNK    H02 1263   1.553   3.221   4.357  0.9982  0.4214 -1.7613
  141UNK    C03 1264   1.426   3.350   4.234  0.5463 -0.3414 -0.0694
  141UNK    C04 1265   1.491   3.399   4.107 -0.3274 -0.5272  0.2921
  141UNK    F05 1266   1.542   3.288   4.040 -0.5562 -0.1324  0.4719
  141UNK    F06 1267   1.411   3.475   4.025  0.1367  0.5080 -0.1160
  141UNK    F07 1268   1.597   3.475   4.148  0.2295 -0.0509 -0.2621
  141UNK    H08 1269   1.320   3.368   4.240  0.5989  0.0316 -0.2188
  142UNK    F00 1270   0.730   4.467   2.379  0.1560 -0.0035  0.5223
  142UNK    C01 1271   0.765   4.540   2.269  0.2071  0.4867 -0.5240
  142UNK    H02 1272   0.857   4.597   2.280  2.5379 -2.9920 -0.3026
  142UNK    C03 1273   0.673   4.544   2.173  0.4775  0.0561 -0.2280
  142UNK    C04 1274   0.621   4.415   2.119 -0.9486 -0.7004 -0.1977
  142UNK    F05 1275   0.572   4.443   1.997  0.5211 -0.4690  0.1664
  142UNK    F06 1276   0.709   4.312   2.101  0.5974 -0.4558  0.2998
  142UNK    F07 1277   0.526   4.361   2.198 -0.2929 -0.3855  0.2919
  142UNK    H08 1278   0.599   4.622   2.169 -0.1491 -0.5771 -1.7889
  143UNK    F00 1279   2.166   2.477   1.983  0.3952  0.2223  0.8348
  143UNK    C01 1280   2.097   2.394   1.908 -0.3805 -0.7676  0.4036
  143UNK    H02 1281   1.997   2.380   1.950 -0.2593 -1.1931  0.5516
  143UNK    C03 1282   2.155   2.347   1.793  0.5297  0.3853 -0.3536
  143UNK    C04 1283   2.086   2.322   1.659  0.3712 -0.8407 -0.6963
  143UNK    F05 1284   2.144   2.227   1.590 -0.1914  0.1464  0.7639
  143UNK    F06 1285   1.960   2.291   1.687 -0.0045 -0.5048 -0.1292
  143UNK    F07 1286   2.082   2.432   1.579  0.0015 -0.3520 -0.0148
  143UNK    H08 1287   2.251   2.298   1.802  1.1567  1.5463 -0.4359
  144UNK    F00 1288   2.459   2.722   3.190 -0.1140 -0.3480 -0.4308
  144UNK    C01 1289   2.478   2.838   3.251  0.6516  0.1418  0.6687
  144UNK    H02 1290   2.427   2.913   3.190  0.5347 -1.0999 -0.8171
  144UNK    C03 1291   2.480   2.841   3.383  0.3183  0.0135 -0.9844
  144UNK    C04 1292   2.603   2.824   3.457 -0.2926  0.7988 -0.0438
  144UNK    F05 1293   2.565   2.786   3.577 -0.1127 -0.3087  0.0196
  144UNK    F06 1294   2.692   2.730   3.400  0.0644  0.1317 -1.1620
  144UNK    F07 1295   2.672   2.940   3.480 -0.1024  0.2528 -0.2379
  144UNK    H08 1296   2.391   2.809   3.435  0.2871  1.3361 -0.1612
  145UNK    F00 1297   4.683   0.358   1.240  0.5200 -0.3631  0.3721
  145UNK    C01 1298   4.677   0.360   1.103 -0.3539 -0.2189  0.2765
  145UNK    H02 1299   4.677   0.256   1.070 -1.2132 -0.1782  0.1312
  145UNK    C03 1300   4.761   0.452   1.048 -0.0107  0.0775 -0.1628
  145UNK    C04 1301   4.723   0.564   0.967  0.2668  0.5881 -0.3698
  145UNK    F05 1302   4.824   0.593   0.883 -0.4840 -0.5318 -0.0248
  145UNK    F06 1303   4.624   0.534   0.870 -0.0467  0.7543 -0.0636
  145UNK    F07 1304   4.679   0.673   1.033  0.1928  0.0983  0.2459
  145UNK    H08 1305   4.859   0.472   1.091  0.0920  1.5579 -1.0066
  146UNK    F00 1306   1.837   2.833   0.144  0.1414  0.7020  0.4238
  146UNK    C01 1307   1.715   2.766   0.150 -0.8077  0.2192  0.4824
  146UNK    H02 1308   1.721   2.681   0.083  0.4111 -0.8717  1.8927
  146UNK    C03 1309   1.665   2.748   0.273 -0.1363  0.0414  0.3787
  146UNK    C04 1310   1.562   2.647   0.297 -0.2918 -0.9124  0.7542
  146UNK    F05 1311   1.489   2.681   0.399 -0.3663 -0.3874 -0.1369
  146UNK    F06 1312   1.475   2.648   0.191 -0.2997 -0.0335 -0.2503
  146UNK    F07 1313   1.614   2.522   0.321 -0.0637  0.1170 -0.2876
  146UNK    H08 1314   1.710   2.782   0.365 -1.9763  0.3984  1.1895
  147UNK    F00 1315   3.983   1.976   1.636  0.3675  0.2801 -0.2592
  147UNK    C01 1316   3.864   2.008   1.577 -0.1488 -0.6685 -0.0724
  147UNK    H02 1317   3.877   2.089   1.506  2.0569 -0.2736  0.6862
  147UNK    C03 1318   3.767   1.918   1.597  0.7933 -0.3301  0.0989
  147UNK    C04 1319   3.654   1.906   1.511  0.0158  0.0336  0.2053
  147UNK    F05 1320   3.615   2.031   1.482  0.1669 -0.0853  0.3612
  147UNK    F06 1321   3.670   1.831   1.395 -0.1565 -0.6052  0.0891
  147UNK    F07 1322   3.554   1.844   1.572  0.5987  0.6222 -0.1928
  147UNK    H08 1323   3.771   1.842   1.674 -1.3584  0.9000  1.5336
  148UNK    F00 1324   2.200   1.082   1.820 -0.6388  0.2035 -0.1184
  148UNK    C01 1325   2.143   1.010   1.720  0.9832 -0.4292 -0.0083
  148UNK    H02 1326   2.216   0.984   1.643  1.0223  1.2796 -0.5760
  148UNK    C03 1327   2.015   1.020   1.695  0.5514  0.1067 -0.0905
  148UNK    C04 1328   1.950   1.133   1.639  0.0573 -0.1019 -0.3359
  148UNK    F05 1329   2.003   1.158   1.518 -0.1546 -0.3260  0.3800
  148UNK    F06 1330   1.815   1.121   1.618 -0.4574  0.0129 -0.1740
  148UNK    F07 1331   1.955   1.249   1.714  0.1576  0.5409  0.1461
  148UNK    H08 1332   1.957   0.929   1.704  0.2623  0.4268  1.5336
  149UNK    F00 1333   3.040   0.872   4.193  0.5241 -0.5058  0.1414
  149UNK    C01 1334   2.918   0.910   4.140  0.2204 -0.2512  0.0636
  149UNK    H02 1335   2.838   0.883   4.209 -1.4581  1.1991 -1.2283
  149UNK    C03 1336   2.918   0.912   4.007  0.0096 -0.1172  0.6060
  149UNK    C04 1337   3.016   0.989   3.936 -0.2469  0.2835  0.3331
  149UNK    F05 1338   2.953   1.021   3.821  0.1484  0.3635 -0.2525
  149UNK    F06 1339   3.049   1.105   3.997  0.3491  0.6863  0.1649
  149UNK    F07 1340   3.128   0.924   3.893  0.6551 -0.0518  0.3727
  149UNK    H08 1341   2.875   0.834   3.945  1.8893  0.0002 -0.9445
  150UNK    F00 1342   0.951   0.502   3.443 -0.1544 -0.1230  0.2039
  150UNK    C01 1343   1.024   0.406   3.381  0.0382 -1.0450  0.5098
  150UNK    H02 1344   0.975   0.383   3.287 -0.7107  0.3630  0.5286
  150UNK    C03 1345   1.153   0.405   3.403 -0.3089 -1.0634 -0.0922
  150UNK    C04 1346   1.246   0.385   3.291  0.5719 -0.0886 -0.4130
  150UNK    F05 1347   1.198   0.288   3.209  0.3837  0.0230 -0.1715
  150UNK    F06 1348   1.273   0.493   3.214 -0.2411 -0.6433  0.0300
  150UNK    F07 1349   1.359   0.332   3.349  0.6833 -0.1084  0.4704
  150UNK    H08 1350   1.200   0.408   3.500 -0.0717  0.9573 -0.2214
  151UNK    F00 1351   2.917   0.284   1.903  0.3074 -0.0279  0.3416
  151UNK    C01 1352   2.847   0.172   1.880  0.2203  0.2637 -0.4701
  151UNK    H02 1353   2.859   0.147   1.775  2.6195  1.3069 -0.4946
  151UNK    C03 1354   2.822   0.081   1.976 -0.5235 -0.2044  0.3080
  151UNK    C04 1355   2.926   0.027   2.068 -0.0160  0.1219  0.2214
  151UNK    F05 1356   3.022  -0.052   2.008 -0.6938 -0.2028 -0.2928
  151UNK    F06 1357   3.005   0.113   2.135 -0.3076 -0.0841  0.8155
  151UNK    F07 1358   2.859  -0.038   2.164 -0.0992 -0.0940  0.2277
  151UNK    H08 1359   2.722   0.043   1.988 -1.2816  0.4731 -2.8080
  152UNK    F00 1360   1.297   3.082   2.174  0.1660 -0.2734  0.3298
  152UNK    C01 1361   1.397   2.987   2.179  0.5232  0.3800 -0.5630
  152UNK    H02 1362   1.364   2.885   2.200 -0.2000  0.9651  1.4202
  152UNK    C03 1363   1.522   3.024   2.169 -0.6020 -0.2791 -0.1207
  152UNK    C04 1364   1.567   3.096   2.051 -0.2537 -0.1026 -0.1147
  152UNK    F05 1365   1.524   3.225   2.055  0.5260  0.1297 -0.4190
  152UNK    F06 1366   1.708   3.089   2.053  0.3479 -0.4719 -0.0384
  152UNK    F07 1367   1.514   3.032   1.944 -0.0131 -0.0207 -0.3441
  152UNK    H08 1368   1.595   3.015   2.248 -0.4951 -1.3610 -0.3234
  153UNK    F00 1369   4.099   0.552   3.799 -0.3806  0.1612 -0.2777
  153UNK    C01 1370   4.161   0.653   3.734  1.1648  0.5601 -0.1134
  153UNK    H02 1371   4.246   0.624   3.673  0.5453 -0.7435 -0.3730
  153UNK    C03 1372   4.132   0.780   3.757  0.2692  0.5372 -0.0497
  153UNK    C04 1373   3.996   0.836   3.768 -0.8389 -0.4970  0.4543
  153UNK    F05 1374   3.946   0.796   3.881 -0.4016  0.4317 -0.0975
  153UNK    F06 1375   4.004   0.971   3.752  0.8071  0.1582 -0.0677
  153UNK    F07 1376   3.909   0.802   3.672 -0.0501 -0.8984 -0.3462
  153UNK    H08 1377   4.204   0.853   3.723  0.5455  0.9129  1.2732
  154UNK    F00 1378   3.471   4.035   4.617 -0.0225 -0.1197 -0.3597
  154UNK    C01 1379   3.581   3.964   4.588  0.3319 -0.0719  1.0589
  154UNK    H02 1380   3.589   3.885   4.663  1.9267 -0.0057  0.9963
  154UNK    C03 1381   3.627   3.974   4.463 -0.2506  0.6995 -0.7732
  154UNK    C04 1382   3.667   3.855   4.383 -0.6132  0.3159 -0.9146
  154UNK    F05 1383   3.751   3.898   4.285 -0.0263 -0.2932 -0.3783
  154UNK    F06 1384   3.729   3.763   4.463 -0.0601 -0.2576 -0.3169
  154UNK    F07 1385   3.565   3.793   4.322 -0.2937 -0.0165  0.1878
  154UNK    H08 1386   3.593   4.056   4.400  1.7764  1.1968 -1.2747
  155UNK    F00 1387   2.560   4.151   3.880  0.7883  0.6176 -0.4053
  155UNK    C01 1388   2.461   4.071   3.841  0.0052  0.4417 -0.0311
  155UNK    H02 1389   2.384   4.144   3.818  1.7246  2.0279 -1.0752
  155UNK    C03 1390   2.475   3.940   3.816  0.2206 -0.1018 -0.1949
  155UNK    C04 1391   2.370   3.875   3.735 -0.6526  0.4465  0.1375
  155UNK    F05 1392   2.247   3.923   3.776  0.0772  0.7264  0.7013
  155UNK    F06 1393   2.384   3.923   3.609 -0.6668 -0.0111  0.4296
  155UNK    F07 1394   2.360   3.740   3.724 -0.1188  0.4066  0.5054
  155UNK    H08 1395   2.558   3.876   3.840 -0.4292 -0.4361  1.2439
  156UNK    F00 1396   4.810   4.693   0.625 -0.2611  0.1925 -0.5773
  156UNK    C01 1397   4.894   4.687   0.524 -0.2107  0.0336  0.5041
  156UNK    H02 1398   4.869   4.771   0.458 -0.2820 -0.1867  0.2479
  156UNK    C03 1399   4.970   4.582   0.489  0.1297  1.1487  0.0791
  156UNK    C04 1400   4.945   4.499   0.369  0.5851  0.1918 -0.1365
  156UNK    F05 1401   4.812   4.501   0.346  0.2021 -0.2636 -0.1845
  156UNK    F06 1402   5.002   4.558   0.263 -0.0582  0.0550 -0.3987
  156UNK    F07 1403   4.996   4.374   0.381  0.2162 -0.0127  0.1122
  156UNK    H08 1404   5.064   4.552   0.534 -0.6887 -3.7784 -0.9367
  157UNK    F00 1405   2.652   1.381   2.227 -0.4208 -0.8686 -0.0376
  157UNK    C01 1406   2.670   1.261   2.170 -0.2508 -0.3907 -0.3460
  157UNK    H02 1407   2.616   1.184   2.224 -0.4652  1.0627  1.6063
  157UNK    C03 1408   2.719   1.260   2.044 -0.4421 -0.0517  1.3682
  157UNK    C04 1409   2.723   1.131   1.968  0.1214  0.5023  0.4731
  157UNK    F05 1410   2.614   1.054   1.993 -0.7356 -0.3289 -0.1197
  157UNK    F06 1411   2.711   1.161   1.835  0.0492 -0.4226 -0.1207
  157UNK    F07 1412   2.833   1.058   1.985 -0.2351 -0.0825  0.6652
  157UNK    H08 1413   2.759   1.352   2.003  1.3111  0.1302  3.3041
  158UNK    F00 1414   4.226   2.680   0.332  0.1519  0.7942  0.3959
  158UNK    C01 1415   4.274   2.767   0.239  0.9817 -0.1168  0.2763
  158UNK    H02 1416   4.366   2.819   0.268  0.6181  0.7608 -0.0875
  158UNK    C03 1417   4.177   2.826   0.164 -0.3944 -0.1172  0.1773
  158UNK    C04 1418   4.199   2.856   0.021 -0.0990 -0.0464 -0.2440
  158UNK    F05 1419   4.323   2.899   0.008  0.0363  0.0812  0.5421
  158UNK    F06 1420   4.179   2.737  -0.046 -0.7019 -0.9513 -0.2921
  158UNK    F07 1421   4.117   2.943  -0.034 -0.0621 -0.3580  0.1893
  158UNK    H08 1422   4.074   2.800   0.184 -0.2461  0.7077  2.2223
  159UNK    F00 1423   0.681   4.645   1.654 -0.5027 -0.0755  0.5592
  159UNK    C01 1424   0.726   4.706   1.760 -0.4122  0.1909  0.4615
  159UNK    H02 1425   0.649   4.752   1.822  1.2718 -0.2513  3.0576
  159UNK    C03 1426   0.842   4.663   1.811  0.2295  0.6326  0.6370
  159UNK    C04 1427   0.974   4.721   1.784 -0.8103 -0.2678 -0.0626
  159UNK    F05 1428   1.006   4.807   1.885 -0.0737  0.0406 -0.7699
  159UNK    F06 1429   1.066   4.617   1.787 -0.4384  0.2507  0.7602
  159UNK    F07 1430   0.989   4.788   1.671 -0.1674 -0.2280  0.2997
  159UNK    H08 1431   0.838   4.570   1.866 -3.4202 -0.0372 -0.5034
  160UNK    F00 1432   4.331   4.431   2.701  0.1284 -0.4056  0.5004
  160UNK    C01 1433   4.366   4.414   2.827  0.4954 -0.7325  0.6223
  160UNK    H02 1434   4.474   4.423   2.840  0.3358 -0.2465  1.6914
  160UNK    C03 1435   4.274   4.469   2.911  0.6495  0.6299 -0.2318
  160UNK    C04 1436   4.211   4.605   2.906 -0.1449 -0.3188 -0.1215
  160UNK    F05 1437   4.123   4.613   2.807 -0.5809 -0.2200 -0.3257
  160UNK    F06 1438   4.141   4.625   3.019  0.0334  0.3212  0.1242
  160UNK    F07 1439   4.312   4.698   2.894  0.5990  0.1754 -0.1546
  160UNK    H08 1440   4.217   4.400   2.971 -2.2215  2.8457 -0.1905
  161UNK    F00 1441   3.601   0.056   2.783  0.3033 -0.0597 -0.3620
  161UNK    C01 1442   3.727   0.015   2.767  0.3759  0.8477  0.2571
  161UNK    H02 1443   3.733  -0.064   2.693  1.0188  0.6306  0.5312
  161UNK    C03 1444   3.819   0.024   2.859  0.2911  0.1326 -0.5055
  161UNK    C04 1445   3.837   0.148   2.934  0.8200  0.4268  0.0234
  161UNK    F05 1446   3.951   0.157   3.005 -0.2265  0.3495  0.2083
  161UNK    F06 1447   3.830   0.253   2.857 -0.3500 -0.0144 -0.1096
  161UNK    F07 1448   3.740   0.159   3.029  0.0428  0.2163 -0.1944
  161UNK    H08 1449   3.914  -0.028   2.851  0.5932  0.6101 -0.1015
  162UNK    F00 1450   2.806   2.903   1.478  0.6049 -0.6040 -0.0119
  162UNK    C01 1451   2.745   2.988   1.395  0.7003  0.3268  0.5299
  162UNK    H02 1452   2.811   3.022   1.316  0.2180 -0.8186 -0.3896
  162UNK    C03 1453   2.636   3.045   1.441 -0.2054  0.1009  1.0883
  162UNK    C04 1454   2.511   2.968   1.452 -0.1060  0.1392 -0.2335
  162UNK    F05 1455   2.424   3.053   1.513 -0.4951 -0.0429 -0.0144
  162UNK    F06 1456   2.474   2.933   1.325  0.3061 -0.2931  0.1938
  162UNK    F07 1457   2.518   2.852   1.528 -0.1275 -0.2219 -0.2308
  162UNK    H08 1458   2.639   3.129   1.508  1.2430 -0.5349  1.8707
  163UNK    F00 1459   3.147   4.264   2.850 -0.1633  0.4689 -0.2486
  163UNK    C01 1460   3.115   4.236   2.725  0.3141  0.2670 -0.1256
  163UNK    H02 1461   3.138   4.132   2.700  1.2929  0.1287  1.2451
  163UNK    C03 1462   3.092   4.335   2.645 -0.2755  0.1734 -0.4125
  163UNK    C04 1463   2.981   4.428   2.686 -0.0846 -0.0936  0.0354
  163UNK    F05 1464   2.949   4.502   2.578  0.0163 -0.3667  0.2333
  163UNK    F06 1465   2.866   4.359   2.712 -0.3816  0.0569  0.1128
  163UNK    F07 1466   3.010   4.513   2.792 -0.4533  0.2418 -0.2080
  163UNK    H08 1467   3.170   4.379   2.585  0.7829  1.8093  2.0363
  164UNK    F00 1468   4.006   3.844   4.197 -0.2166 -0.1607  0.0685
  164UNK    C01 1469   4.060   3.726   4.160  0.6962  0.5009 -0.1493
  164UNK    H02 1470   3.985   3.662   4.114  2.3763 -1.3448 -0.4814
  164UNK    C03 1471   4.169   3.682   4.223  0.1369 -0.3516 -0.4674
  164UNK    C04 1472   4.158   3.621   4.354 -0.1317  0.5771 -0.0079
  164UNK    F05 1473   4.145   3.486   4.336 -0.2270 -0.0754  0.2058
  164UNK    F06 1474   4.267   3.632   4.429 -0.5947  0.6990  0.4831
  164UNK    F07 1475   4.045   3.661   4.415 -0.1124  0.0755 -0.5880
  164UNK    H08 1476   4.261   3.659   4.172  1.5641 -1.0334  2.2781
  165UNK    F00 1477   1.002   4.334   4.102 -0.2731  0.4416 -0.1512
  165UNK    C01 1478   1.096   4.427   4.075 -0.2296  0.3958  0.2893
  165UNK    H02 1479   1.051   4.516   4.031 -1.2449 -0.6514 -0.9155
  165UNK    C03 1480   1.229   4.414   4.085  0.0432 -0.0350 -0.1530
  165UNK    C04 1481   1.284   4.291   4.147  0.1296  0.1667  0.3656
  165UNK    F05 1482   1.317   4.198   4.049 -0.0168 -0.6156  0.3274
  165UNK    F06 1483   1.399   4.336   4.211 -0.2005 -0.7022  0.1654
  165UNK    F07 1484   1.204   4.231   4.231 -0.2316 -0.5322 -0.5113
  165UNK    H08 1485   1.295   4.497   4.101 -0.1954  0.0676  0.3339
  166UNK    F00 1486   4.427   3.256   1.960  0.0152  0.0762  0.0047
  166UNK    C01 1487   4.525   3.240   1.875  0.3809 -0.5386  0.6492
  166UNK    H02 1488   4.558   3.336   1.834  2.0251 -1.4536 -0.2525
  166UNK    C03 1489   4.561   3.120   1.839 -0.2732 -0.3521  0.6347
  166UNK    C04 1490   4.698   3.092   1.785 -0.1354  0.1833  0.0703
  166UNK    F05 1491   4.785   3.074   1.885 -0.1810 -0.0822 -0.6278
  166UNK    F06 1492   4.706   3.003   1.689 -0.1405 -0.0581  0.2050
  166UNK    F07 1493   4.752   3.197   1.730 -0.3502 -0.2977 -0.2481
  166UNK    H08 1494   4.514   3.032   1.878  1.8500 -1.6248  0.4805
  167UNK    F00 1495   3.894   0.241   4.083 -0.0999  0.0376  0.0010
  167UNK    C01 1496   3.860   0.170   4.193 -0.0450  0.5201  0.3230
  167UNK    H02 1497   3.948   0.122   4.235 -1.6809 -1.9806  1.1418
  167UNK    C03 1498   3.728   0.173   4.220 -0.7608 -0.8068 -0.5018
  167UNK    C04 1499   3.630   0.083   4.164 -0.0518 -0.7116  0.1797
  167UNK    F05 1500   3.509   0.105   4.226  0.3980 -0.2554  0.2495
  167UNK    F06 1501   3.604   0.097   4.028 -0.0523  0.3840 -0.6312
  167UNK    F07 1502   3.662  -0.044   4.186 -0.1758 -0.1307 -0.3380
  167UNK    H08 1503   3.683   0.240   4.292 -1.0967 -0.3974 -1.0823
  168UNK    F00 1504   0.663   2.916   4.283 -0.3041 -0.3817  0.1363
  168UNK    C01 1505   0.711   2.826   4.200 -0.0175  0.4214 -0.6178
  168UNK    H02 1506   0.671   2.852   4.102 -1.6751  0.0040 -0.0881
  168UNK    C03 1507   0.824   2.766   4.234 -0.1800  0.0637  0.8102
  168UNK    C04 1508   0.935   2.703   4.156 -0.2486 -0.6681 -0.1170
  168UNK    F05 1509   0.991   2.597   4.212 -0.0136 -0.0596 -0.2566
  168UNK    F06 1510   0.882   2.673   4.035 -0.2061 -0.0945  0.2261
  168UNK    F07 1511   1.041   2.793   4.128  0.3265 -0.0956 -0.1267
  168UNK    H08 1512   0.824   2.729   4.335  1.5315  2.9055  1.9803
  169UNK    F00 1513   1.997   0.168   1.005  0.1480  0.3318  0.1166
  169UNK    C01 1514   2.120   0.197   0.967 -0.0236  0.1931 -0.5971
  169UNK    H02 1515   2.131   0.304   0.949  0.6020  0.9651  3.4092
  169UNK    C03 1516   2.223   0.108   0.972 -0.3710 -0.1531  0.1275
  169UNK    C04 1517   2.369   0.134   0.991 -0.4007 -0.1991  0.4723
  169UNK    F05 1518   2.411   0.214   0.894 -0.1008  0.1041  0.4773
  169UNK    F06 1519   2.395   0.190   1.113 -0.6866 -0.3080 -0.2296
  169UNK    F07 1520   2.435   0.015   0.985  0.0518 -0.6597  0.2513
  169UNK    H08 1521   2.195   0.003   0.978 -3.7492  0.4844 -1.7364
  170UNK    F00 1522   3.701   2.385   1.470  0.1420 -0.1187  0.3670
  170UNK    C01 1523   3.585   2.443   1.433  0.2390  0.3801 -0.7733
  170UNK    H02 1524   3.601   2.472   1.329 -0.8105  1.6760 -0.6113
  170UNK    C03 1525   3.466   2.409   1.479 -0.3268  0.5759  0.8045
  170UNK    C04 1526   3.348   2.475   1.420  0.4209 -0.0987 -0.2005
  170UNK    F05 1527   3.315   2.400   1.312 -0.3201 -0.2934  0.3949
  170UNK    F06 1528   3.253   2.461   1.516  0.0040 -0.5003 -0.2698
  170UNK    F07 1529   3.370   2.607   1.387 -0.2397 -0.2538  0.5159
  170UNK    H08 1530   3.451   2.303   1.491  0.5427  0.6611  3.1157
  171UNK    F00 1531   2.148   1.233   3.157  0.1780  0.5310 -0.2315
  171UNK    C01 1532   2.172   1.108   3.118  0.0532 -0.3705  0.8942
  171UNK    H02 1533   2.279   1.095   3.106  0.0945  1.3532 -1.3601
  171UNK    C03 1534   2.077   1.020   3.103 -0.4803  0.0952 -0.2852
  171UNK    C04 1535   2.099   0.873   3.101 -0.3515  0.8630  0.5252
  171UNK    F05 1536   1.998   0.803   3.052  0.2429 -0.1316 -0.8729
  171UNK    F06 1537   2.204   0.834   3.016 -0.1592  0.2999  0.2140
  171UNK    F07 1538   2.120   0.822   3.222 -0.0855  0.5196  0.2290
  171UNK    H08 1539   1.982   1.048   3.145 -1.3260 -1.8820 -0.7957
  172UNK    F00 1540   4.505   2.176   4.088  0.1620 -0.1287  0.3272
  172UNK    C01 1541   4.429   2.250   4.169 -0.0286  0.9664  0.0062
  172UNK    H02 1542   4.327   2.215   4.188  0.2693  0.4626  0.7123
  172UNK    C03 1543   4.475   2.365   4.215  0.0112 -0.5452 -0.2718
  172UNK    C04 1544   4.405   2.492   4.189  0.0720 -0.0307  0.4250
  172UNK    F05 1545   4.474   2.602   4.215 -0.1957  0.2336 -0.2054
  172UNK    F06 1546   4.348   2.492   4.062  0.0950 -0.1976  0.0369
  172UNK    F07 1547   4.292   2.497   4.261 -0.6102  0.1781 -0.1964
  172UNK    H08 1548   4.582   2.381   4.215  0.0241 -0.5928 -1.2426
  173UNK    F00 1549   4.781   1.948   3.640  0.2776  0.4756  0.6133
  173UNK    C01 1550   4.892   2.010   3.599  0.1866  0.3672 -0.3095
  173UNK    H02 1551   4.874   2.108   3.555  0.5150  0.5464 -0.0573
  173UNK    C03 1552   4.992   1.931   3.564  0.1099  0.4483  0.0214
  173UNK    C04 1553   5.131   1.974   3.586  0.1987 -0.2688 -0.1271
  173UNK    F05 1554   5.201   1.905   3.498  0.4950 -0.1373 -0.1508
  173UNK    F06 1555   5.159   2.105   3.553 -0.0983 -0.1280 -0.5252
  173UNK    F07 1556   5.168   1.947   3.715  0.0534  0.8669  0.0088
  173UNK    H08 1557   4.978   1.837   3.512  0.5869  0.5019 -0.2034
  174UNK    F00 1558   3.834   0.488   1.574  0.3622  0.1400 -0.0127
  174UNK    C01 1559   3.794   0.453   1.695  0.7862 -0.0858  0.7516
  174UNK    H02 1560   3.751   0.353   1.691  1.0037 -0.2771  2.4486
  174UNK    C03 1561   3.757   0.546   1.785  0.4617  0.0917 -0.3508
  174UNK    C04 1562   3.829   0.667   1.803 -0.1336  0.0034  0.7282
  174UNK    F05 1563   3.962   0.651   1.802 -0.3937 -0.5625 -0.2799
  174UNK    F06 1564   3.824   0.760   1.705  0.4456 -0.7907  0.5131
  174UNK    F07 1565   3.789   0.730   1.919  0.2485 -0.1459 -0.0457
  174UNK    H08 1566   3.651   0.568   1.782  0.4550  0.0448 -0.4793
  175UNK    F00 1567   2.783   3.832   4.484 -0.1123 -0.0542  0.6614
  175UNK    C01 1568   2.914   3.820   4.455  0.1614 -1.2237  0.0298
  175UNK    H02 1569   2.950   3.717   4.458  1.9803 -0.6640 -1.0687
  175UNK    C03 1570   2.989   3.913   4.496 -0.2185  0.2421  0.2977
  175UNK    C04 1571   3.123   3.942   4.442 -0.5074  0.3856  0.9493
  175UNK    F05 1572   3.116   4.009   4.326 -0.1102  0.1258 -0.3384
  175UNK    F06 1573   3.195   4.021   4.526  0.0445 -0.0768  0.3793
  175UNK    F07 1574   3.187   3.819   4.424  0.0804 -0.2422  0.0357
  175UNK    H08 1575   2.954   3.976   4.577 -1.0390  0.6198 -0.3332
  176UNK    F00 1576   4.184   3.334   4.100  0.4453 -0.1556  0.3056
  176UNK    C01 1577   4.155   3.208   4.099  0.2310 -0.2130 -0.3668
  176UNK    H02 1578   4.066   3.187   4.039  1.9497  1.0972 -3.6135
  176UNK    C03 1579   4.186   3.146   4.213 -0.2085 -0.0351 -0.2377
  176UNK    C04 1580   4.218   2.999   4.235  0.4440 -1.0931  0.2419
  176UNK    F05 1581   4.174   2.911   4.145  0.5102  0.0243 -0.0011
  176UNK    F06 1582   4.352   3.000   4.242  0.1376 -0.3116  0.6928
  176UNK    F07 1583   4.180   2.953   4.359 -0.1955  0.6983 -0.6218
  176UNK    H08 1584   4.215   3.205   4.299  1.8529 -1.8978  0.4604
  177UNK    F00 1585   0.407   2.297   4.095  0.0378 -0.0192 -0.0024
  177UNK    C01 1586   0.413   2.163   4.092 -0.0066  0.3523 -0.2336
  177UNK    H02 1587   0.348   2.114   4.165 -2.3922  2.1600 -1.0163
  177UNK    C03 1588   0.504   2.107   4.016  0.0044 -0.0655  0.1671
  177UNK    C04 1589   0.643   2.095   4.050 -0.6316  0.0281 -0.5898
  177UNK    F05 1590   0.669   1.975   4.109  0.1486  0.0125  0.1305
  177UNK    F06 1591   0.724   2.112   3.944 -0.2324 -0.0215 -0.2352
  177UNK    F07 1592   0.690   2.179   4.138 -0.1903 -0.4303  0.1251
  177UNK    H08 1593   0.476   2.084   3.914 -0.8048 -3.5129  1.0546
  178UNK    F00 1594   1.665   0.944   4.467 -0.3771 -0.1412 -0.5191
  178UNK    C01 1595   1.766   0.875   4.519  0.2725  0.1617 -0.0750
  178UNK    H02 1596   1.832   0.835   4.442  0.1603 -1.0094  0.4216
  178UNK    C03 1597   1.797   0.894   4.648 -0.1565  0.0045  0.3624
  178UNK    C04 1598   1.823   1.029   4.700 -0.3558 -0.1318  0.6844
  178UNK    F05 1599   1.707   1.105   4.705 -0.4651 -0.7471 -0.0091
  178UNK    F06 1600   1.876   1.014   4.823  0.4884 -0.3529  0.0236
  178UNK    F07 1601   1.904   1.108   4.630  0.3163  0.4982 -0.0771
  178UNK    H08 1602   1.741   0.846   4.727 -0.2279 -0.2306  0.1672
  179UNK    F00 1603   1.415   4.536   2.004 -0.2062 -0.2614  0.3392
  179UNK    C01 1604   1.293   4.494   2.021  0.1312  0.3269  0.0051
  179UNK    H02 1605   1.235   4.505   1.929 -2.3240  1.1858  1.5633
  179UNK    C03 1606   1.257   4.451   2.139  0.1028 -0.4967 -0.6310
  179UNK    C04 1607   1.209   4.556   2.234 -0.3355 -0.1086  0.2054
  179UNK    F05 1608   1.254   4.545   2.358 -1.0249  0.2457 -0.4039
  179UNK    F06 1609   1.256   4.681   2.196  0.1563 -0.2350 -0.1979
  179UNK    F07 1610   1.072   4.558   2.236  0.5861  0.2551  0.0860
  179UNK    H08 1611   1.302   4.363   2.183  1.9023 -0.4858 -2.3360
  180UNK    F00 1612   0.313   0.512   1.673 -0.1158 -0.2135 -0.8180
  180UNK    C01 1613   0.326   0.450   1.558  0.5368  0.2434  0.4344
  180UNK    H02 1614   0.315   0.341   1.565  4.0890 -0.2706 -0.0627
  180UNK    C03 1615   0.361   0.518   1.450  0.1160  0.2884 -0.4155
  180UNK    C04 1616   0.344   0.461   1.314 -0.0933 -0.5164  1.1891
  180UNK    F05 1617   0.362   0.330   1.312  0.1849 -0.0727  0.4320
  180UNK    F06 1618   0.218   0.482   1.265  0.1619 -0.7533  0.1262
  180UNK    F07 1619   0.428   0.513   1.226  0.5759 -0.3796 -0.5022
  180UNK    H08 1620   0.448   0.581   1.452 -0.0412  0.5018  1.2238
  181UNK    F00 1621   0.248   3.635   1.680 -0.1085  0.3426 -0.7251
  181UNK    C01 1622   0.128   3.683   1.654  1.0893 -0.4451  0.0905
  181UNK    H02 1623   0.045   3.613   1.656  0.3108  0.3863 -1.1186
  181UNK    C03 1624   0.112   3.807   1.608  0.0306 -0.6782  0.3379
  181UNK    C04 1625  -0.018   3.871   1.612  0.7685  0.1041  0.2004
  181UNK    F05 1626  -0.038   3.959   1.517 -0.1418 -0.0169 -0.3714
  181UNK    F06 1627  -0.129   3.795   1.621  0.1940  0.0962  0.2617
  181UNK    F07 1628  -0.024   3.940   1.727  0.3214  0.0498  0.0262
  181UNK    H08 1629   0.193   3.878   1.599  1.0912 -1.9328 -0.3530
  182UNK    F00 1630   1.188   2.630   2.933 -0.3459 -0.3310 -0.7573
  182UNK    C01 1631   1.071   2.666   2.879 -0.8773 -0.7561  0.5578
  182UNK    H02 1632   1.019   2.575   2.847 -0.8943  0.2159 -2.4895
  182UNK    C03 1633   1.025   2.790   2.902  0.1775  0.7635 -0.6066
  182UNK    C04 1634   1.085   2.911   2.838 -0.4004 -0.2461  0.2440
  182UNK    F05 1635   1.025   3.022   2.887  0.8122 -0.0843 -0.1208
  182UNK    F06 1636   1.218   2.931   2.829 -0.6448  0.1609  0.2145
  182UNK    F07 1637   1.051   2.894   2.709  0.9547  0.0475 -0.0324
  182UNK    H08 1638   0.943   2.803   2.970 -0.5005 -0.3321 -1.1848
  183UNK    F00 1639   2.248   1.589   3.848  0.4227 -0.2386 -0.0725
  183UNK    C01 1640   2.175   1.700   3.814  0.3508 -0.1799 -0.3907
  183UNK    H02 1641   2.093   1.718   3.883  0.3588  0.2411 -0.4892
  183UNK    C03 1642   2.225   1.789   3.728 -0.0227  0.5013  0.4891
  183UNK    C04 1643   2.193   1.935   3.722  0.1460 -0.3104 -0.4033
  183UNK    F05 1644   2.067   1.959   3.763 -0.6525  0.1424 -0.4509
  183UNK    F06 1645   2.282   2.005   3.805 -0.4234 -0.0224  1.0677
  183UNK    F07 1646   2.205   1.971   3.594 -0.0369 -0.6405  0.3349
  183UNK    H08 1647   2.328   1.769   3.705  0.2379 -0.6866  2.4473
  184UNK    F00 1648   2.636   4.539   2.311  0.2464  0.5974 -0.4567
  184UNK    C01 1649   2.670   4.422   2.380  0.0028 -0.1808  0.7848
  184UNK    H02 1650   2.760   4.423   2.441 -0.0005 -0.9698  0.8195
  184UNK    C03 1651   2.602   4.308   2.353 -0.8900  0.2185  0.1939
  184UNK    C04 1652   2.664   4.225   2.250 -0.0302 -0.3320 -0.1837
  184UNK    F05 1653   2.682   4.288   2.130  0.2985  0.5776 -0.1262
  184UNK    F06 1654   2.792   4.194   2.275 -0.2048  0.3331 -0.5206
  184UNK    F07 1655   2.584   4.118   2.231 -0.3940  0.5891 -0.3400
  184UNK    H08 1656   2.494   4.307   2.351 -0.8796 -0.0249 -0.5142
  185UNK    F00 1657   3.200   0.212   4.218  0.0438 -0.4061 -0.5289
  185UNK    C01 1658   3.213   0.240   4.348 -0.3575  0.3745 -0.3641
  185UNK    H02 1659   3.239   0.345   4.362  0.2046 -0.0506  2.1721
  185UNK    C03 1660   3.242   0.141   4.431 -0.0841  0.3168  0.2479
  185UNK    C04 1661   3.130   0.050   4.473  0.2288 -0.1385  0.0357
  185UNK    F05 1662   3.089  -0.030   4.372  0.0105 -0.2264 -0.2231
  185UNK    F06 1663   3.173  -0.025   4.578 -0.1193  0.3482 -0.5684
  185UNK    F07 1664   3.024   0.119   4.514  0.0672  0.2600 -0.1502
  185UNK    H08 1665   3.334   0.093   4.401 -0.0765  0.7275 -0.4143
  186UNK    F00 1666   4.741   2.414   2.683  0.3582  0.1008  0.4626
  186UNK    C01 1667   4.634   2.337   2.697  0.5761  0.1440 -0.4419
  186UNK    H02 1668   4.643   2.242   2.644 -3.1119 -0.9398  0.5928
  186UNK    C03 1669   4.522   2.382   2.757 -0.2705 -0.3641 -0.0932
  186UNK    C04 1670   4.410   2.443   2.681 -0.4598 -0.6624  0.1106
  186UNK    F05 1671   4.299   2.469   2.752  0.2740 -0.3908 -0.4206
  186UNK    F06 1672   4.451   2.560   2.624  0.3466 -0.2662 -0.0460
  186UNK    F07 1673   4.378   2.365   2.574  0.0893 -0.4553 -0.3916
  186UNK    H08 1674   4.500   2.372   2.862  1.6297  0.8608  0.4766
  187UNK    F00 1675   2.796   2.181   0.783 -0.2986 -0.2956 -0.1340
  187UNK    C01 1676   2.772   2.049   0.770  0.2919 -0.5388 -0.1820
  187UNK    H02 1677   2.862   1.997   0.739  1.7708  1.1322  1.1407
  187UNK    C03 1678   2.660   2.000   0.826  0.5733 -0.0743  0.2598
  187UNK    C04 1679   2.662   1.859   0.876  0.6867 -0.5704 -0.0992
  187UNK    F05 1680   2.532   1.824   0.889 -0.6490 -0.6132 -0.4674
  187UNK    F06 1681   2.728   1.783   0.788  0.0038 -0.0333  0.1261
  187UNK    F07 1682   2.720   1.845   0.993  0.4370 -0.3282  0.1098
  187UNK    H08 1683   2.572   2.060   0.809  1.7728  1.0826 -2.4990
  188UNK    F00 1684   4.436   1.054   3.013  0.1355  0.0630 -0.5078
  188UNK    C01 1685   4.497   1.156   2.945 -0.7593  0.2162  0.5785
  188UNK    H02 1686   4.458   1.255   2.965 -1.0714  0.0096  1.0244
  188UNK    C03 1687   4.582   1.128   2.845 -0.4448 -0.0634 -0.3937
  188UNK    C04 1688   4.684   1.224   2.798  0.1720 -1.0501 -0.5854
  188UNK    F05 1689   4.619   1.336   2.763  0.1778 -0.0045  0.2242
  188UNK    F06 1690   4.763   1.251   2.908 -0.1882 -0.2483  0.1551
  188UNK    F07 1691   4.751   1.201   2.682 -0.6530  0.1210 -0.0639
  188UNK    H08 1692   4.640   1.037   2.847  1.2663  0.9845 -0.6018
  189UNK    F00 1693   3.700   3.007   3.077  0.2556  0.0405  0.0740
  189UNK    C01 1694   3.795   3.081   3.130  0.1135 -0.1193  0.1808
  189UNK    H02 1695   3.883   3.072   3.067  1.2983  0.3158  1.7143
  189UNK    C03 1696   3.791   3.122   3.256 -0.2181 -0.1630 -0.5522
  189UNK    C04 1697   3.837   3.052   3.377 -0.6237 -0.2455  1.0136
  189UNK    F05 1698   3.784   3.098   3.489 -0.0701  0.2768 -0.3605
  189UNK    F06 1699   3.784   2.926   3.378 -0.1300  0.4155 -0.1856
  189UNK    F07 1700   3.972   3.042   3.388 -0.6390  0.1338  0.7808
  189UNK    H08 1701   3.720   3.198   3.283  0.2683  0.3345 -0.6591
  190UNK    F00 1702   4.459   4.639   0.567 -0.4738 -0.3989  0.7094
  190UNK    C01 1703   4.393   4.720   0.651  0.2393 -0.0468  0.1197
  190UNK    H02 1704   4.285   4.706   0.654  0.4644 -2.0686  0.3694
  190UNK    C03 1705   4.467   4.780   0.740  0.4749  0.5807 -0.3644
  190UNK    C04 1706   4.405   4.881   0.828  0.5352  0.2298 -0.3842
  190UNK    F05 1707   4.338   4.818   0.926  0.1826  0.6616  0.0201
  190UNK    F06 1708   4.489   4.966   0.887 -0.0124 -0.0875 -0.6186
  190UNK    F07 1709   4.309   4.958   0.765 -0.4461 -0.7581 -0.1915
  190UNK    H08 1710   4.566   4.812   0.710  0.1637 -0.0821 -2.2069
  191UNK    F00 1711   0.406   2.172   2.061  0.1357  0.1826  0.3802
  191UNK    C01 1712   0.364   2.047   2.061 -0.2878  0.2077  0.2337
  191UNK    H02 1713   0.371   1.998   2.158  0.1360 -1.8393 -0.7629
  191UNK    C03 1714   0.268   2.010   1.975 -0.4701 -0.4370  0.8804
  191UNK    C04 1715   0.124   2.054   1.982 -0.6954  0.7255 -0.1440
  191UNK    F05 1716   0.095   2.180   1.986  0.3915 -0.2925  0.2497
  191UNK    F06 1717   0.053   1.985   1.888  0.4839 -0.1763  0.2970
  191UNK    F07 1718   0.076   2.010   2.106 -0.0598 -0.1013 -0.1051
  191UNK    H08 1719   0.291   1.995   1.870 -1.2325 -0.5774  0.7219
  192UNK    F00 1720   0.636   3.707   3.290 -0.0366 -0.0657 -0.0489
  192UNK    C01 1721   0.512   3.706   3.335  0.2018 -0.1462 -0.7019
  192UNK    H02 1722   0.470   3.806   3.348 -0.4581 -0.5013  0.0286
  192UNK    C03 1723   0.443   3.592   3.334  0.0590  0.0978  0.3705
  192UNK    C04 1724   0.308   3.593   3.395 -0.5370  0.0553  0.2456
  192UNK    F05 1725   0.324   3.637   3.517 -0.0195 -0.0606  0.1899
  192UNK    F06 1726   0.222   3.676   3.331 -0.0240 -0.1649  0.0106
  192UNK    F07 1727   0.261   3.468   3.407  0.1184  0.4383 -0.1273
  192UNK    H08 1728   0.448   3.549   3.235  2.0448  1.0167  0.0214
  193UNK    F00 1729   0.916   3.564   0.990 -0.2201  0.0826 -0.2410
  193UNK    C01 1730   0.935   3.489   0.880  1.0579 -0.2161 -0.8764
  193UNK    H02 1731   0.836   3.456   0.848  0.9333 -0.0496 -0.6610
  193UNK    C03 1732   1.050   3.436   0.843 -0.2109  0.7786 -0.6549
  193UNK    C04 1733   1.115   3.321   0.914  0.5439 -0.1407 -0.1171
  193UNK    F05 1734   1.023   3.220   0.911 -0.2365 -0.1600  0.1132
  193UNK    F06 1735   1.217   3.270   0.838 -0.1339 -0.1524  0.5252
  193UNK    F07 1736   1.145   3.332   1.046 -0.3539  0.1343  0.0280
  193UNK    H08 1737   1.075   3.427   0.738  0.8634 -1.7222 -0.2558
  194UNK    F00 1738   0.843   2.941   2.475  0.2430  0.3191 -0.3689
  194UNK    C01 1739   0.766   2.841   2.420 -0.3040  0.0928 -0.6507
  194UNK    H02 1740   0.667   2.852   2.465  0.9287  0.8701  2.0839
  194UNK    C03 1741   0.826   2.730   2.379  0.1470 -0.0717 -0.5484
  194UNK    C04 1742   0.822   2.601   2.443  0.3125 -0.3198 -0.3255
  194UNK    F05 1743   0.699   2.559   2.467 -0.1669 -0.0896  0.0679
  194UNK    F06 1744   0.876   2.511   2.357  0.4133 -0.1567  0.0325
  194UNK    F07 1745   0.892   2.614   2.563 -0.7150  0.2487  0.4914
  194UNK    H08 1746   0.898   2.718   2.300  0.6400 -4.2017  0.2821
  195UNK    F00 1747   4.678   2.623   1.668 -0.2458  0.2873 -0.4377
  195UNK    C01 1748   4.676   2.673   1.545 -0.4013  0.6424 -0.6328
  195UNK    H02 1749   4.727   2.597   1.486  0.3773  1.3162 -0.8521
  195UNK    C03 1750   4.586   2.773   1.523  0.6450 -0.9889  0.1289
  195UNK    C04 1751   4.545   2.824   1.389 -0.9231 -0.3457  0.3244
  195UNK    F05 1752   4.661   2.850   1.319 -0.3676  0.3628  0.1519
  195UNK    F06 1753   4.485   2.717   1.328 -0.3380 -0.0912 -0.2162
  195UNK    F07 1754   4.462   2.934   1.401  0.2576 -0.6957  0.4408
  195UNK    H08 1755   4.549   2.836   1.603 -0.6450  1.5560 -2.3214
  196UNK    F00 1756   4.131   3.486   0.230 -0.5394  0.2133  0.4083
  196UNK    C01 1757   4.249   3.454   0.274 -0.4132 -0.1544 -0.4951
  196UNK    H02 1758   4.319   3.537   0.289 -0.6627 -0.3120  1.9595
  196UNK    C03 1759   4.280   3.327   0.269  0.0727  0.2213 -0.6186
  196UNK    C04 1760   4.384   3.263   0.351  0.2326 -0.1774 -0.2688
  196UNK    F05 1761   4.490   3.345   0.334 -0.4925  0.3574  0.1323
  196UNK    F06 1762   4.342   3.237   0.473  0.4019  0.1426 -0.2185
  196UNK    F07 1763   4.417   3.144   0.301  0.6348  0.8121 -0.4335
  196UNK    H08 1764   4.232   3.266   0.194 -0.8334  0.4873 -0.2737
  197UNK    F00 1765   3.930   1.654   0.861  0.0671  0.1218 -0.2506
  197UNK    C01 1766   3.953   1.532   0.811  0.1299 -0.9678 -0.3305
  197UNK    H02 1767   3.866   1.473   0.783 -0.8289  1.0481 -1.8796
  197UNK    C03 1768   4.065   1.486   0.857 -0.2984  0.2183 -0.5146
  197UNK    C04 1769   4.166   1.418   0.783  0.1779 -0.6373 -0.6174
  197UNK    F05 1770   4.222   1.315   0.855 -0.8459  0.5379  0.2668
  197UNK    F06 1771   4.128   1.357   0.666  0.1191  0.0315  0.1080
  197UNK    F07 1772   4.266   1.510   0.751 -0.0152  0.4003 -0.0639
  197UNK    H08 1773   4.067   1.464   0.962  3.5747 -0.1287 -0.5099
  198UNK    F00 1774   1.948   2.861   4.129 -0.0905 -0.6292 -0.3068
  198UNK    C01 1775   1.840   2.918   4.181 -0.2515 -0.2589  0.0375
  198UNK    H02 1776   1.857   3.024   4.203  0.8717 -0.4834  0.3513
  198UNK    C03 1777   1.726   2.849   4.165 -0.0898 -0.2699 -0.3104
  198UNK    C04 1778   1.591   2.898   4.192 -0.0482 -0.3799 -0.1983
  198UNK    F05 1779   1.565   2.985   4.100 -0.5982 -0.1726 -0.1315
  198UNK    F06 1780   1.489   2.807   4.182 -0.0879  0.5996 -0.0614
  198UNK    F07 1781   1.582   2.973   4.305 -0.1168 -0.1922 -0.1360
  198UNK    H08 1782   1.720   2.764   4.098 -1.4601 -1.3832  1.1736
  199UNK    F00 1783   2.325   2.645   0.636  0.0466 -0.4287  0.2953
  199UNK    C01 1784   2.428   2.567   0.656 -0.2055  0.0963  0.1022
  199UNK    H02 1785   2.487   2.596   0.743 -1.4477 -1.0852  1.3925
  199UNK    C03 1786   2.425   2.442   0.613  0.3387  0.2877 -0.1976
  199UNK    C04 1787   2.518   2.329   0.639 -0.3194  0.2754 -0.0833
  199UNK    F05 1788   2.641   2.345   0.586 -0.0493 -0.0556 -0.3398
  199UNK    F06 1789   2.553   2.328   0.768  0.1718  0.2458  0.1294
  199UNK    F07 1790   2.480   2.203   0.607 -0.1757  0.3316 -0.5422
  199UNK    H08 1791   2.339   2.426   0.550  0.0465  2.6686 -0.5232
  200UNK    F00 1792   0.320   3.400   0.973  0.2343  0.0899 -0.4799
  200UNK    C01 1793   0.228   3.297   0.974  0.0157 -0.2004  0.1916
  200UNK    H02 1794   0.217   3.280   0.867 -0.2540  0.9585  0.0283
  200UNK    C03 1795   0.241   3.213   1.071 -0.7504  0.6170  0.4659
  200UNK    C04 1796   0.194   3.069   1.066 -0.0775 -0.3234  1.0636
  200UNK    F05 1797   0.147   3.022   1.183 -0.5143 -0.0588  0.1427
  200UNK    F06 1798   0.110   3.040   0.959  0.6603  0.0784 -0.2585
  200UNK    F07 1799   0.304   2.994   1.037  0.2780 -0.2776 -0.4394
  200UNK    H08 1800   0.286   3.241   1.165 -0.1235  0.3858  0.2325
  201UNK    F00 1801   4.389   3.456   4.801 -0.5493  0.2437  0.5626
  201UNK    C01 1802   4.363   3.428   4.674 -0.2766  0.6291 -0.0291
  201UNK    H02 1803   4.433   3.476   4.606 -1.0008 -0.8647 -1.9303
  201UNK    C03 1804   4.264   3.351   4.631  0.3216  0.3230 -0.1476
  201UNK    C04 1805   4.239   3.216   4.688  0.7581 -0.5997 -0.4357
  201UNK    F05 1806   4.152   3.233   4.786 -0.5707  0.6703  0.0693
  201UNK    F06 1807   4.187   3.133   4.595 -0.4965  0.6185 -0.3606
  201UNK    F07 1808   4.356   3.181   4.742 -0.0422  0.2699  0.0577
  201UNK    H08 1809   4.211   3.366   4.538 -1.3636 -0.7724  0.5935
  202UNK    F00 1810   1.754   0.546   2.250 -0.0856 -0.2972  0.1275
  202UNK    C01 1811   1.832   0.448   2.302 -0.3587 -0.4815 -0.3126
  202UNK    H02 1812   1.831   0.443   2.411  2.6336  2.4910  0.0001
  202UNK    C03 1813   1.929   0.402   2.220  0.4103 -0.6442  0.2862
  202UNK    C04 1814   1.993   0.274   2.250 -0.3672  0.5717  0.0714
  202UNK    F05 1815   1.944   0.175   2.174 -0.0514 -0.1089  0.3240
  202UNK    F06 1816   2.128   0.271   2.242  0.2936  0.0461 -0.0081
  202UNK    F07 1817   1.971   0.233   2.377  0.1333 -0.0193  0.1543
  202UNK    H08 1818   1.949   0.438   2.120 -1.0913  0.9153  0.5224
  203UNK    F00 1819   4.621   3.612   4.499 -0.0959 -0.2236 -0.3377
  203UNK    C01 1820   4.604   3.658   4.376 -0.1754  0.5691 -0.2058
  203UNK    H02 1821   4.645   3.758   4.359 -2.0466  0.9665 -3.0433
  203UNK    C03 1822   4.546   3.588   4.285  0.5816 -0.0671 -0.0746
  203UNK    C04 1823   4.569   3.620   4.138  0.2608  0.2146 -0.0791
  203UNK    F05 1824   4.458   3.598   4.063  0.3138  0.5277 -0.5105
  203UNK    F06 1825   4.605   3.748   4.112 -0.0942  0.3322  0.0139
  203UNK    F07 1826   4.673   3.550   4.077 -0.2701  0.3919  0.0534
  203UNK    H08 1827   4.458   3.527   4.297  3.0472 -3.7101  1.0637
  204UNK    F00 1828   2.557   3.715   3.416  0.0597 -0.7582  0.3393
  204UNK    C01 1829   2.577   3.589   3.430  0.4987  0.2096 -0.2490
  204UNK    H02 1830   2.597   3.568   3.535  0.1310  0.4112 -0.1349
  204UNK    C03 1831   2.638   3.518   3.334 -0.4179  0.2875 -0.2359
  204UNK    C04 1832   2.636   3.368   3.315 -0.2220 -0.4959 -0.2755
  204UNK    F05 1833   2.706   3.325   3.419 -0.7048  0.4424 -0.0552
  204UNK    F06 1834   2.513   3.313   3.305  0.2571  0.2536 -0.5488
  204UNK    F07 1835   2.706   3.336   3.208  0.4325 -0.1239 -0.0651
  204UNK    H08 1836   2.656   3.560   3.237  0.3234 -1.3646 -0.8531
  205UNK    F00 1837   2.480   1.548   1.257  0.0788  0.6229  0.1864
  205UNK    C01 1838   2.437   1.480   1.364 -0.0876 -0.3376 -0.5885
  205UNK    H02 1839   2.487   1.384   1.370 -1.5793 -1.0509  1.1341
  205UNK    C03 1840   2.327   1.528   1.426 -0.0505 -0.7673 -0.4140
  205UNK    C04 1841   2.247   1.460   1.528  0.1481  0.1041 -0.6697
  205UNK    F05 1842   2.226   1.332   1.491 -0.2195 -0.1614  0.8766
  205UNK    F06 1843   2.313   1.445   1.646  0.1966  0.5932 -0.0611
  205UNK    F07 1844   2.124   1.509   1.542 -0.5509  0.4548 -0.0171
  205UNK    H08 1845   2.295   1.628   1.402  1.0410 -0.1025  0.7826
  206UNK    F00 1846   1.936   0.358   3.262 -0.1278  0.1620  0.3386
  206UNK    C01 1847   1.922   0.251   3.336 -0.0510  0.6319 -0.3813
  206UNK    H02 1848   1.954   0.276   3.438 -1.5873  4.1434 -0.6335
  206UNK    C03 1849   1.940   0.134   3.271  0.0387  0.1661  0.4855
  206UNK    C04 1850   1.909   0.009   3.348  0.2746  0.5137 -0.8406
  206UNK    F05 1851   1.969   0.006   3.468  0.1156  0.5069  0.1959
  206UNK    F06 1852   1.778   0.022   3.378 -0.2812 -0.4338  0.3392
  206UNK    F07 1853   1.911  -0.111   3.286  0.5316  0.2782 -1.0297
  206UNK    H08 1854   1.892   0.119   3.176  1.5519 -1.5933 -0.0619
  207UNK    F00 1855   1.663   2.109   2.335  0.4944  0.2554  0.1199
  207UNK    C01 1856   1.782   2.146   2.289 -0.1924 -0.0711  0.9514
  207UNK    H02 1857   1.819   2.066   2.226  0.3933 -0.5692  1.9009
  207UNK    C03 1858   1.809   2.277   2.282 -0.2938 -0.4482  0.1710
  207UNK    C04 1859   1.883   2.355   2.382  0.1045  0.2731 -0.1340
  207UNK    F05 1860   2.017   2.336   2.385  0.1161 -0.1467 -0.2133
  207UNK    F06 1861   1.854   2.490   2.381 -0.4045 -0.2735  0.7496
  207UNK    F07 1862   1.837   2.327   2.509  0.5094  0.3920  0.3151
  207UNK    H08 1863   1.747   2.332   2.212 -0.9366 -1.9548 -0.4761
  208UNK    F00 1864   0.433   1.187   2.937  0.1377  0.2054  0.0572
  208UNK    C01 1865   0.516   1.191   3.045 -0.9242 -0.6279  0.0079
  208UNK    H02 1866   0.521   1.283   3.104  1.6405 -0.8106  0.1586
  208UNK    C03 1867   0.524   1.069   3.104  0.2820  0.4911 -0.0657
  208UNK    C04 1868   0.593   0.952   3.048 -0.1910 -0.1473 -0.0339
  208UNK    F05 1869   0.535   0.846   3.104  0.3596 -0.8692 -0.0691
  208UNK    F06 1870   0.578   0.952   2.910 -0.0545 -0.0014  0.5126
  208UNK    F07 1871   0.727   0.939   3.064  0.1687 -0.4919 -0.7617
  208UNK    H08 1872   0.536   1.068   3.211 -0.2732 -1.3209  0.0109
  209UNK    F00 1873   0.230   4.634   4.090  0.0185  0.1490  0.5237
  209UNK    C01 1874   0.131   4.709   4.149  0.2074  0.3455  0.3458
  209UNK    H02 1875   0.170   4.809   4.169  0.7558  0.4660 -1.1831
  209UNK    C03 1876   0.005   4.671   4.132  0.0468 -0.7603  0.0467
  209UNK    C04 1877  -0.117   4.753   4.148  0.4557  0.0087 -0.4193
  209UNK    F05 1878  -0.151   4.813   4.031  0.4294 -0.2587 -0.1244
  209UNK    F06 1879  -0.220   4.671   4.182 -0.2628  0.2888  0.0956
  209UNK    F07 1880  -0.113   4.849   4.247 -0.2162  0.6394 -0.4186
  209UNK    H08 1881  -0.018   4.572   4.096  1.1308 -0.9443 -0.1780
  210UNK    F00 1882   4.755   3.031   3.438 -0.1194 -0.3418  0.0976
  210UNK    C01 1883   4.805   2.990   3.317 -0.3964 -0.0884  0.4348
  210UNK    H02 1884   4.724   2.955   3.252  0.0790 -0.7057  0.1666
  210UNK    C03 1885   4.928   3.022   3.294  0.0672 -0.3639 -0.3985
  210UNK    C04 1886   5.001   3.151   3.323  0.6911  0.2652 -0.8446
  210UNK    F05 1887   5.027   3.171   3.456  0.0505 -0.6186  0.1262
  210UNK    F06 1888   5.108   3.177   3.254  0.2751  0.0259 -0.3221
  210UNK    F07 1889   4.909   3.250   3.290  0.4733  0.3718 -0.4185
  210UNK    H08 1890   4.988   2.947   3.244  0.6283 -0.7503  0.8291
  211UNK    F00 1891   1.115   0.430   4.481  0.1046  0.8163 -0.3586
  211UNK    C01 1892   1.069   0.386   4.603 -0.6258 -0.2759  0.5630
  211UNK    H02 1893   0.960   0.379   4.601 -0.5406 -1.6747 -0.8084
  211UNK    C03 1894   1.159   0.316   4.680  0.7311  0.0584 -0.3259
  211UNK    C04 1895   1.113   0.214   4.773  0.0935  0.1507  0.2875
  211UNK    F05 1896   1.197   0.190   4.869 -0.1497  0.0447  0.2000
  211UNK    F06 1897   0.981   0.224   4.820 -0.4292 -0.0123 -0.1498
  211UNK    F07 1898   1.116   0.098   4.711  0.6282  0.4168 -0.1580
  211UNK    H08 1899   1.258   0.359   4.692  0.3401  0.8466  0.0938
  212UNK    F00 1900   1.297   0.605   2.721  0.3315 -0.1831  0.1952
  212UNK    C01 1901   1.180   0.557   2.663 -1.1217 -0.9494  0.1940
  212UNK    H02 1902   1.157   0.596   2.564 -1.1509 -2.8702 -0.6105
  212UNK    C03 1903   1.120   0.458   2.725  0.4665 -0.1204 -0.2470
  212UNK    C04 1904   1.009   0.382   2.671  0.1896 -0.4238 -0.1010
  212UNK    F05 1905   0.935   0.469   2.600 -0.2272 -0.1767  0.4484
  212UNK    F06 1906   1.031   0.274   2.589  0.2898 -0.2998  0.1815
  212UNK    F07 1907   0.929   0.349   2.774 -0.3616 -0.1437 -0.3031
  212UNK    H08 1908   1.171   0.409   2.807 -1.9112 -1.6908  0.3759
  213UNK    F00 1909   3.365   3.160   1.116  0.2785  0.1450  0.2797
  213UNK    C01 1910   3.316   3.261   1.029 -0.0598 -0.0386  0.4975
  213UNK    H02 1911   3.209   3.284   1.035  0.5219  3.0081  1.0419
  213UNK    C03 1912   3.399   3.362   1.008 -0.9162  0.5323  0.6165
  213UNK    C04 1913   3.365   3.478   0.922 -0.1624 -0.6206 -0.0246
  213UNK    F05 1914   3.300   3.433   0.819 -0.2068 -0.2910  0.2149
  213UNK    F06 1915   3.294   3.574   0.991 -0.0392  0.5776 -0.2654
  213UNK    F07 1916   3.473   3.540   0.872  0.6490  0.3571 -0.3068
  213UNK    H08 1917   3.496   3.363   1.054 -1.2490 -2.5960  1.6007
  214UNK    F00 1918   0.552   0.329   2.380 -0.0296 -0.5066  0.0043
  214UNK    C01 1919   0.665   0.337   2.310  0.1475 -0.1623  0.4056
  214UNK    H02 1920   0.682   0.435   2.265  1.7847 -0.7674 -0.3857
  214UNK    C03 1921   0.748   0.230   2.301  0.3831 -0.0445 -0.1903
  214UNK    C04 1922   0.714   0.116   2.218  0.0724  0.1651 -0.2159
  214UNK    F05 1923   0.763   0.149   2.094 -0.2994  0.3826  0.1327
  214UNK    F06 1924   0.794   0.008   2.256 -0.2995  0.3819 -0.3390
  214UNK    F07 1925   0.587   0.090   2.212  0.0031  0.3192 -0.1461
  214UNK    H08 1926   0.835   0.223   2.365  0.5705  0.1121 -0.4300
  215UNK    F00 1927   0.365   0.409   0.938 -0.4081 -0.0300 -0.0662
  215UNK    C01 1928   0.317   0.520   0.876  0.2274  0.4886 -0.4045
  215UNK    H02 1929   0.264   0.588   0.942 -2.2395 -3.1138  1.6862
  215UNK    C03 1930   0.355   0.542   0.751 -0.8149  0.4908  0.3671
  215UNK    C04 1931   0.341   0.673   0.690  0.2511  0.3301 -0.1691
  215UNK    F05 1932   0.211   0.713   0.699 -0.0373 -0.3252  0.0529
  215UNK    F06 1933   0.421   0.765   0.759  0.1326 -0.1501  0.0208
  215UNK    F07 1934   0.378   0.667   0.559 -0.1062 -0.1460 -0.2461
  215UNK    H08 1935   0.392   0.462   0.688  0.8070  2.4004 -1.2281
  216UNK    F00 1936   3.430   2.223   3.730  0.0378  0.0225  0.0831
  216UNK    C01 1937   3.347   2.322   3.765 -0.8132 -0.1275 -0.4375
  216UNK    H02 1938   3.372   2.417   3.718  0.3550  0.6908  1.6967
  216UNK    C03 1939   3.262   2.299   3.862 -0.5044  0.4929  0.3634
  216UNK    C04 1940   3.147   2.213   3.848 -0.6613  0.6762  1.1778
  216UNK    F05 1941   3.182   2.091   3.888 -0.1472  0.0056  0.1598
  216UNK    F06 1942   3.059   2.244   3.942  0.0637  0.0480 -0.1033
  216UNK    F07 1943   3.096   2.199   3.721 -0.4194 -0.3524  1.1951
  216UNK    H08 1944   3.291   2.292   3.966 -1.6013 -1.5506  0.5749
  217UNK    F00 1945   0.455   3.484   2.306 -0.1581 -0.3223 -0.3897
  217UNK    C01 1946   0.400   3.604   2.330  0.5815  0.3832  0.4953
  217UNK    H02 1947   0.312   3.592   2.393 -0.6235  0.5388 -1.0952
  217UNK    C03 1948   0.465   3.713   2.296  0.0447  0.3526  0.0552
  217UNK    C04 1949   0.438   3.796   2.179 -0.1126 -0.8822 -0.0376
  217UNK    F05 1950   0.317   3.856   2.182 -0.2862 -0.1066  0.0225
  217UNK    F06 1951   0.517   3.907   2.189  0.1828 -0.0336  0.1136
  217UNK    F07 1952   0.456   3.744   2.057  0.5260  0.1725  0.4700
  217UNK    H08 1953   0.512   3.774   2.371 -2.1601  1.3797  0.7052
  218UNK    F00 1954   1.870   1.766   0.300 -0.2678  0.5026  0.2171
  218UNK    C01 1955   1.940   1.663   0.259 -0.7966  0.4472 -0.1116
  218UNK    H02 1956   1.953   1.650   0.152 -0.1005 -0.9285  0.1089
  218UNK    C03 1957   2.006   1.586   0.344  0.2568  0.3952 -0.0820
  218UNK    C04 1958   1.951   1.464   0.413  0.4865  0.4820 -0.3228
  218UNK    F05 1959   2.020   1.435   0.528  0.6409 -0.3434  0.5673
  218UNK    F06 1960   1.826   1.473   0.467 -0.4772 -0.2064  0.1273
  218UNK    F07 1961   1.947   1.355   0.336 -0.1543 -0.3157 -0.2907
  218UNK    H08 1962   2.104   1.611   0.383 -0.5411 -1.3873  3.5439
  219UNK    F00 1963   0.813   4.816   0.011 -0.0548  0.2884  0.1915
  219UNK    C01 1964   0.702   4.760   0.064  0.3715 -0.6684  0.4148
  219UNK    H02 1965   0.613   4.780   0.004  1.0606 -0.4395 -0.5457
  219UNK    C03 1966   0.704   4.707   0.183  0.3554  0.0958 -0.3252
  219UNK    C04 1967   0.815   4.620   0.234  0.6439  0.6503  0.3272
  219UNK    F05 1968   0.914   4.693   0.289 -0.2620 -0.4653 -0.3625
  219UNK    F06 1969   0.782   4.527   0.333  0.0593  0.1013  0.6323
  219UNK    F07 1970   0.866   4.557   0.122 -0.2399  0.0607 -0.9601
  219UNK    H08 1971   0.627   4.732   0.255  1.4731  1.3441  0.4827
  220UNK    F00 1972   4.773   0.072   2.557  0.1520 -0.3010  0.1768
  220UNK    C01 1973   4.672   0.071   2.641 -0.6686 -0.0228  0.0630
  220UNK    H02 1974   4.652   0.175   2.668 -1.2074  0.4950 -2.0997
  220UNK    C03 1975   4.633  -0.035   2.703 -0.3081  0.5292 -0.1769
  220UNK    C04 1976   4.718  -0.132   2.776 -0.6211  1.2840  0.0622
  220UNK    F05 1977   4.754  -0.085   2.895  0.2512  0.0827 -0.0959
  220UNK    F06 1978   4.662  -0.257   2.793  0.3935 -0.1219  0.3166
  220UNK    F07 1979   4.830  -0.165   2.709 -0.1760  0.1594  0.4197
  220UNK    H08 1980   4.531  -0.033   2.738 -0.4432  0.4605 -0.5618
  221UNK    F00 1981   2.523   0.005   4.798  0.1959  0.3915 -0.6052
  221UNK    C01 1982   2.430  -0.063   4.869 -0.1054 -0.5131 -0.5127
  221UNK    H02 1983   2.329  -0.054   4.830 -0.2516 -0.0419 -0.0439
  221UNK    C03 1984   2.480  -0.121   4.978  0.6552 -0.4839  0.2944
  221UNK    C04 1985   2.421  -0.243   5.041 -0.6205 -0.7209  0.0858
  221UNK    F05 1986   2.495  -0.348   5.003  0.1474  0.3895 -0.2133
  221UNK    F06 1987   2.416  -0.236   5.176  0.4773 -0.1308 -0.2905
  221UNK    F07 1988   2.293  -0.273   5.000  0.3100 -0.8485 -0.4259
  221UNK    H08 1989   2.560  -0.082   5.039  0.1926  2.2761 -0.7516
  222UNK    F00 1990   2.069   2.803   1.334 -0.0499  0.4280 -0.0230
  222UNK    C01 1991   2.044   2.934   1.339  0.5762 -0.7773 -0.1020
  222UNK    H02 1992   2.096   2.984   1.420  2.2112 -1.0096 -0.9656
  222UNK    C03 1993   2.012   3.001   1.228  0.8500 -0.0612 -0.3383
  222UNK    C04 1994   2.078   2.974   1.099 -0.3894  0.5596  0.0789
  222UNK    F05 1995   2.045   3.066   1.001  0.5731 -0.2379 -0.0171
  222UNK    F06 1996   2.214   2.991   1.109 -0.0996 -0.0970  0.2696
  222UNK    F07 1997   2.069   2.854   1.038 -0.1684  0.4308 -0.4145
  222UNK    H08 1998   1.975   3.102   1.237  0.6451 -0.1208 -0.5108
  223UNK    F00 1999   1.767   1.767   4.699 -0.3375 -0.0135  0.5073
  223UNK    C01 2000   1.817   1.810   4.582  0.3494 -0.2037  0.0604
  223UNK    H02 2001   1.860   1.910   4.585 -0.6019  0.2161  0.0023
  223UNK    C03 2002   1.771   1.754   4.473  0.1833  0.4990  0.0220
  223UNK    C04 2003   1.701   1.619   4.465 -0.0848  0.5688  0.3985
  223UNK    F05 2004   1.572   1.625   4.497  0.3365 -0.2436  0.6295
  223UNK    F06 2005   1.708   1.582   4.330  0.2134  0.1090 -0.8737
  223UNK    F07 2006   1.756   1.524   4.548 -0.0904  0.2770 -0.2454
  223UNK    H08 2007   1.731   1.825   4.402 -0.1076 -0.4988 -0.8304
  224UNK    F00 2008   4.091   1.131   4.182 -0.4688  0.1159  0.1172
  224UNK    C01 2009   3.982   1.172   4.119 -0.2078  0.2227  0.1363
  224UNK    H02 2010   3.906   1.102   4.152  0.3992 -1.4332 -1.7189
  224UNK    C03 2011   3.982   1.271   4.032 -0.1776 -0.4782  1.0235
  224UNK    C04 2012   4.066   1.284   3.913 -0.7966  0.1740 -0.5086
  224UNK    F05 2013   4.028   1.215   3.811  0.3790  0.1931  0.1032
  224UNK    F06 2014   4.082   1.413   3.873  0.1217 -0.1008 -0.8093
  224UNK    F07 2015   4.200   1.261   3.939  0.6972 -0.1310  0.3146
  224UNK    H08 2016   3.898   1.338   4.025 -0.4624 -0.9298  0.0715
  225UNK    F00 2017   2.899   1.002   4.699  0.1219  0.1172  0.0975
  225UNK    C01 2018   2.870   1.097   4.610 -0.1637 -0.0082 -0.1852
  225UNK    H02 2019   2.781   1.081   4.548 -0.7076  0.2163  0.5189
  225UNK    C03 2020   2.946   1.210   4.624 -0.3083  0.4816  0.6145
  225UNK    C04 2021   2.913   1.324   4.537 -0.1348  0.0545  0.0379
  225UNK    F05 2022   2.931   1.300   4.404  0.0007  0.0416 -0.2370
  225UNK    F06 2023   2.789   1.360   4.547  0.1871 -0.2427 -0.7457
  225UNK    F07 2024   2.987   1.437   4.565  0.1324  0.1430 -0.7120
  225UNK    H08 2025   3.037   1.208   4.682 -1.0289  0.1898  1.7627
  226UNK    F00 2026   3.362   3.033   1.996  0.0030 -0.2926 -1.0088
  226UNK    C01 2027   3.260   3.082   1.918 -0.1584 -0.4279 -0.5931
  226UNK    H02 2028   3.186   3.012   1.878 -0.5493 -1.3283  1.5322
  226UNK    C03 2029   3.246   3.214   1.920  0.0877  0.4775  0.0646
  226UNK    C04 2030   3.345   3.288   1.835 -0.2652 -0.0437  0.5352
  226UNK    F05 2031   3.314   3.271   1.708 -0.0034  0.0810  0.0587
  226UNK    F06 2032   3.340   3.426   1.860  0.6603  0.0634  0.5300
  226UNK    F07 2033   3.470   3.243   1.842 -0.4182 -0.0607 -0.1441
  226UNK    H08 2034   3.209   3.265   2.007  0.3145  1.8169 -0.5949
  227UNK    F00 2035   3.858   3.148   2.181  0.0638 -0.2363  0.1015
  227UNK    C01 2036   3.800   3.040   2.230  0.3884 -0.6200 -0.4788
  227UNK    H02 2037   3.865   2.974   2.288  1.4596  0.6103 -0.2202
  227UNK    C03 2038   3.677   2.999   2.183  0.0234 -0.4859 -0.2835
  227UNK    C04 2039   3.600   2.895   2.252 -0.3894  0.7692  0.3672
  227UNK    F05 2040   3.679   2.811   2.311 -0.4262  0.1052  0.3026
  227UNK    F06 2041   3.508   2.931   2.346 -0.3095 -0.2054  0.4872
  227UNK    F07 2042   3.520   2.831   2.165  0.2034  0.3244 -0.5559
  227UNK    H08 2043   3.618   3.069   2.126 -1.3906  0.0230  1.6886
  228UNK    F00 2044   3.536   4.457   1.403 -0.8121  0.0706  0.5648
  228UNK    C01 2045   3.500   4.505   1.285 -0.6304  0.0472  0.3764
  228UNK    H02 2046   3.395   4.530   1.270 -0.7177 -1.8043 -3.2295
  228UNK    C03 2047   3.596   4.506   1.187 -0.3471  0.7386  0.3586
  228UNK    C04 2048   3.617   4.604   1.079 -0.1914 -0.1597  0.6353
  228UNK    F05 2049   3.650   4.546   0.957  0.3687 -0.0866 -0.2410
  228UNK    F06 2050   3.506   4.672   1.053 -0.6635 -0.1429  0.9659
  228UNK    F07 2051   3.707   4.698   1.115 -0.3303  0.1995 -0.2349
  228UNK    H08 2052   3.644   4.410   1.174 -1.1617  0.6624 -3.2181
  229UNK    F00 2053   2.650   0.626   1.093 -0.2954 -0.0433 -0.0724
  229UNK    C01 2054   2.765   0.576   1.115 -0.7929  0.1963  0.4770
  229UNK    H02 2055   2.820   0.624   1.196  0.4755  1.6271 -1.1389
  229UNK    C03 2056   2.779   0.451   1.075 -0.0692 -0.0187  0.3031
  229UNK    C04 2057   2.748   0.338   1.163 -0.4176 -0.2525 -0.5191
  229UNK    F05 2058   2.630   0.350   1.223  0.7503 -1.0537 -0.5785
  229UNK    F06 2059   2.763   0.222   1.096  0.1579  0.4770 -0.3211
  229UNK    F07 2060   2.838   0.336   1.258 -0.1137 -0.1985 -0.0749
  229UNK    H08 2061   2.745   0.439   0.973 -3.5291  1.8023  1.1005
  230UNK    F00 2062   3.771   3.980   2.078  0.0896  0.1268 -0.1725
  230UNK    C01 2063   3.847   3.956   1.973  0.1628 -0.9419  0.2387
  230UNK    H02 2064   3.799   3.888   1.903  0.6609 -0.2977 -0.7329
  230UNK    C03 2065   3.970   4.008   1.964 -0.2015  0.1432  0.0765
  230UNK    C04 2066   3.993   4.151   1.999 -0.7258 -0.0177 -0.2911
  230UNK    F05 2067   3.923   4.239   1.925 -0.2343  0.4140 -0.3582
  230UNK    F06 2068   3.960   4.189   2.126  0.3129  0.2657 -0.6376
  230UNK    F07 2069   4.117   4.195   1.979 -0.3438  0.4488  0.4476
  230UNK    H08 2070   4.056   3.944   1.957 -0.5153 -0.1681 -1.0840
  231UNK    F00 2071   4.583   3.780   0.769  0.7018 -0.2656  0.3873
  231UNK    C01 2072   4.472   3.782   0.692  0.4450  0.7649 -0.0558
  231UNK    H02 2073   4.383   3.749   0.745  0.1378 -0.9083 -1.5376
  231UNK    C03 2074   4.480   3.787   0.564  0.3423 -0.5982  0.0088
  231UNK    C04 2075   4.362   3.829   0.486 -0.2028 -0.0462  0.0088
  231UNK    F05 2076   4.390   3.831   0.347 -0.1328 -0.1433  0.3222
  231UNK    F06 2077   4.278   3.725   0.488  0.6056  0.1369  0.0869
  231UNK    F07 2078   4.294   3.933   0.535  0.4230 -0.1948  0.0883
  231UNK    H08 2079   4.564   3.734   0.522  0.9899  0.3515  0.1005
  232UNK    F00 2080   3.637   1.368   0.811  0.1002  0.0299  0.0705
  232UNK    C01 2081   3.609   1.294   0.923  0.2946  0.3597 -0.3007
  232UNK    H02 2082   3.502   1.306   0.943  0.7722  1.4731  1.8755
  232UNK    C03 2083   3.701   1.240   1.006  0.4373 -0.4359 -0.5473
  232UNK    C04 2084   3.656   1.162   1.129  0.2051  0.2471 -0.2838
  232UNK    F05 2085   3.582   1.232   1.213  0.0362  0.9654 -0.0554
  232UNK    F06 2086   3.600   1.045   1.094 -0.3264  0.4530 -0.0675
  232UNK    F07 2087   3.772   1.137   1.192 -0.2917 -0.0701 -0.0283
  232UNK    H08 2088   3.798   1.214   0.968 -0.1654 -0.9861 -1.7399
  233UNK    F00 2089   3.812   0.576   2.934  0.1619 -0.2489 -0.1131
  233UNK    C01 2090   3.893   0.652   3.013  0.6563 -0.5778 -0.3328
  233UNK    H02 2091   3.988   0.602   3.027  0.4644 -0.5176  1.3966
  233UNK    C03 2092   3.851   0.776   3.041  0.0901  0.3025 -0.5744
  233UNK    C04 2093   3.803   0.880   2.947 -0.4256  0.5646 -0.5272
  233UNK    F05 2094   3.817   1.008   2.988  0.2682  0.2914  0.4650
  233UNK    F06 2095   3.875   0.868   2.829  0.4032 -0.1768  0.1262
  233UNK    F07 2096   3.669   0.865   2.921 -0.5410 -0.4400  0.5873
  233UNK    H08 2097   3.784   0.779   3.126  0.6977 -0.0960 -0.0732
  234UNK    F00 2098   1.326   3.339   0.071  0.0651  0.2664 -0.5004
  234UNK    C01 2099   1.300   3.211   0.060 -0.7573  0.1210  0.2271
  234UNK    H02 2100   1.258   3.181  -0.036  0.6839  0.6240 -0.5768
  234UNK    C03 2101   1.321   3.136   0.168  0.7433 -0.2989 -0.1329
  234UNK    C04 2102   1.362   2.995   0.159  0.0060 -0.3897  0.1612
  234UNK    F05 2103   1.486   2.969   0.116 -0.1733  0.3213 -0.2819
  234UNK    F06 2104   1.362   2.938   0.280  0.5297  0.1411 -0.2905
  234UNK    F07 2105   1.287   2.917   0.076 -0.4462  0.0000 -0.0228
  234UNK    H08 2106   1.255   3.149   0.253 -1.8182 -1.4165 -1.8133
  235UNK    F00 2107   1.296   3.099   4.103 -0.2738  0.1827  0.2481
  235UNK    C01 2108   1.327   3.051   3.981  0.9943 -0.1806  0.3633
  235UNK    H02 2109   1.407   3.107   3.934 -0.7522  1.3981 -0.8966
  235UNK    C03 2110   1.243   2.955   3.932 -0.3894 -0.4374 -0.1634
  235UNK    C04 2111   1.276   2.859   3.825 -0.5435  0.0824 -0.5214
  235UNK    F05 2112   1.160   2.802   3.786 -0.4254  0.0286  0.0704
  235UNK    F06 2113   1.343   2.911   3.725  0.0658  0.6128  0.0513
  235UNK    F07 2114   1.365   2.767   3.881 -0.5621 -0.4833 -0.0483
  235UNK    H08 2115   1.145   2.942   3.975 -0.6577 -0.6568 -0.8371
  236UNK    F00 2116   2.572   0.746   3.723  0.3705  0.5693 -0.4475
  236UNK    C01 2117   2.569   0.828   3.616  0.6201 -0.0664  0.6379
  236UNK    H02 2118   2.484   0.796   3.556  1.1717 -1.9957  0.7878
  236UNK    C03 2119   2.682   0.870   3.557  0.2388 -1.0346 -0.5187
  236UNK    C04 2120   2.676   0.988   3.460 -0.7171 -0.1617 -0.4592
  236UNK    F05 2121   2.638   1.094   3.534 -0.7050 -0.2525  0.3307
  236UNK    F06 2122   2.796   1.012   3.403  0.0638  0.1399  0.0289
  236UNK    F07 2123   2.587   0.968   3.365 -0.0250  0.1638 -0.1564
  236UNK    H08 2124   2.774   0.814   3.557  0.5589 -0.5985  1.5554
  237UNK    F00 2125   2.318   3.057   2.741  0.1576  0.4039 -0.2028
  237UNK    C01 2126   2.447   3.078   2.764 -0.5224 -0.2339 -0.2075
  237UNK    H02 2127   2.474   3.179   2.733  1.1835 -0.6782 -0.2527
  237UNK    C03 2128   2.536   2.977   2.791 -0.1392  0.4245  0.0319
  237UNK    C04 2129   2.653   2.981   2.881  0.2028  0.3722 -0.2472
  237UNK    F05 2130   2.659   2.877   2.970  0.0609  0.0720  0.3014
  237UNK    F06 2131   2.748   2.945   2.794  0.5346 -0.2396  0.2209
  237UNK    F07 2132   2.690   3.103   2.929 -0.8816 -0.1914 -0.1766
  237UNK    H08 2133   2.510   2.875   2.766  0.2900  0.2666  0.2246
  238UNK    F00 2134   4.349   0.390   3.738  0.2670  0.0806 -0.3371
  238UNK    C01 2135   4.451   0.316   3.684  0.0776  0.5449  0.0755
  238UNK    H02 2136   4.433   0.286   3.581 -0.1814  0.6590  0.0874
  238UNK    C03 2137   4.547   0.258   3.763  0.1157 -0.0305  0.0783
  238UNK    C04 2138   4.675   0.206   3.706 -0.4626  0.2131  0.0108
  238UNK    F05 2139   4.775   0.297   3.692 -0.1219 -0.1419 -0.0230
  238UNK    F06 2140   4.722   0.111   3.787 -1.1154  0.5050  0.0373
  238UNK    F07 2141   4.656   0.138   3.590  0.1191 -0.5171 -0.2767
  238UNK    H08 2142   4.517   0.211   3.855  0.4364 -1.7229 -0.6452
  239UNK    F00 2143   1.122   0.951   2.168 -0.2721 -0.9356  0.0858
  239UNK    C01 2144   1.002   0.894   2.191  0.2153 -0.3817 -0.3581
  239UNK    H02 2145   0.996   0.872   2.298  1.0560  0.5302 -0.1065
  239UNK    C03 2146   0.937   0.813   2.106  0.1114 -0.6126  0.0647
  239UNK    C04 2147   0.911   0.667   2.130  0.6267 -0.0082  0.2500
  239UNK    F05 2148   0.860   0.599   2.030  0.0058 -0.1983  0.1528
  239UNK    F06 2149   1.031   0.608   2.154  0.5477 -0.4458 -0.0518
  239UNK    F07 2150   0.832   0.642   2.234 -0.3423 -0.5157  0.2824
  239UNK    H08 2151   0.964   0.832   2.003  1.0915 -3.4293 -0.2750
  240UNK    F00 2152   4.264   2.936   0.539  0.0543 -0.5310  0.3548
  240UNK    C01 2153   4.136   2.938   0.542  0.4837  0.2797 -0.1369
  240UNK    H02 2154   4.096   3.032   0.507 -1.9306  0.1244  1.9572
  240UNK    C03 2155   4.061   2.831   0.559  0.3635 -0.0974 -0.1078
  240UNK    C04 2156   3.998   2.782   0.679 -0.0447 -0.2622  0.7051
  240UNK    F05 2157   4.006   2.650   0.682  0.7767  0.0988 -0.2814
  240UNK    F06 2158   4.049   2.821   0.800  0.5852 -0.6870  0.2348
  240UNK    F07 2159   3.870   2.805   0.662 -0.3552  0.2529  0.1505
  240UNK    H08 2160   4.048   2.762   0.476 -1.9268  1.2286 -0.9558
  241UNK    F00 2161   2.073   4.283   2.648  0.2850 -0.4838 -0.2166
  241UNK    C01 2162   2.098   4.160   2.699 -0.1600 -0.0777  0.7989
  241UNK    H02 2163   2.202   4.134   2.717 -0.4688 -1.2761  0.9739
  241UNK    C03 2164   1.998   4.109   2.772 -0.1464 -0.1147  0.2712
  241UNK    C04 2165   2.022   3.999   2.870  0.0661 -0.3415 -0.2644
  241UNK    F05 2166   2.089   4.023   2.987 -0.1905  0.4329  0.4527
  241UNK    F06 2167   1.906   3.952   2.911  0.2638  0.3662  0.5967
  241UNK    F07 2168   2.108   3.902   2.820 -0.7546 -0.1445  0.2491
  241UNK    H08 2169   1.911   4.085   2.714  0.6239 -0.1368 -0.9035
  242UNK    F00 2170   2.984   2.650   4.129 -0.1916 -0.4616  0.0946
  242UNK    C01 2171   3.114   2.647   4.170  0.6163  0.3101 -0.0675
  242UNK    H02 2172   3.148   2.729   4.232  0.4506 -0.3551  0.9357
  242UNK    C03 2173   3.194   2.572   4.101 -0.3274 -1.2183  0.3699
  242UNK    C04 2174   3.319   2.525   4.166  0.3157 -0.0012 -0.0862
  242UNK    F05 2175   3.286   2.433   4.260 -0.4642 -0.2557  0.2600
  242UNK    F06 2176   3.403   2.465   4.076  0.4795  0.5454  0.4269
  242UNK    F07 2177   3.395   2.626   4.219  0.3372 -0.1715 -0.2968
  242UNK    H08 2178   3.173   2.544   3.999 -1.9475  0.3311  0.2276
  243UNK    F00 2179   2.139   2.484   1.145  0.3997  0.3449  0.1935
  243UNK    C01 2180   2.228   2.514   1.056  0.4400 -0.1610  0.4827
  243UNK    H02 2181   2.298   2.586   1.100 -2.6184  2.0434  2.1657
  243UNK    C03 2182   2.251   2.438   0.952 -0.4623 -0.1315 -0.2860
  243UNK    C04 2183   2.281   2.290   0.977  0.0678 -0.2872  0.2204
  243UNK    F05 2184   2.376   2.272   1.070 -0.3230 -0.0569 -0.1776
  243UNK    F06 2185   2.163   2.227   1.014 -0.2611 -0.2997 -0.3109
  243UNK    F07 2186   2.309   2.227   0.859  0.1365  0.4790  0.2176
  243UNK    H08 2187   2.185   2.458   0.869 -1.0220 -1.2935 -0.1390
  244UNK    F00 2188   0.642   2.193   4.771  0.0334  0.5949  0.0628
  244UNK    C01 2189   0.552   2.290   4.789 -0.4837  0.4986  0.2641
  244UNK    H02 2190   0.457   2.253   4.827 -0.7587 -0.3173 -1.1083
  244UNK    C03 2191   0.591   2.419   4.811  0.0146  0.8216  0.3925
  244UNK    C04 2192   0.473   2.499   4.855 -0.6872  0.2885 -0.3305
  244UNK    F05 2193   0.358   2.467   4.793  0.0999  0.3549 -0.0590
  244UNK    F06 2194   0.454   2.479   4.988 -0.2782 -0.1800 -1.0501
  244UNK    F07 2195   0.497   2.628   4.833 -0.4583 -0.0724  0.3825
  244UNK    H08 2196   0.682   2.443   4.864  0.1269  0.2213  0.4695
  245UNK    F00 2197   1.505   1.363   4.683 -0.2580  0.0824 -0.1938
  245UNK    C01 2198   1.578   1.429   4.776  0.1714 -0.5238 -0.2474
  245UNK    H02 2199   1.562   1.536   4.774  0.7805 -0.4438 -1.1760
  245UNK    C03 2200   1.584   1.367   4.895  0.3461  0.5824  0.1161
  245UNK    C04 2201   1.681   1.409   4.993 -0.3206 -0.3728 -0.2465
  245UNK    F05 2202   1.643   1.495   5.088 -0.3040 -0.0453  0.0813
  245UNK    F06 2203   1.734   1.303   5.061 -0.1422 -0.3095  0.3413
  245UNK    F07 2204   1.784   1.468   4.933  0.6139 -0.2342 -0.0830
  245UNK    H08 2205   1.543   1.268   4.908 -0.1503  0.5319 -1.5220
  246UNK    F00 2206   3.530   0.433   4.490  0.5931  0.2531  0.4981
  246UNK    C01 2207   3.546   0.553   4.542  0.1947 -1.2172  0.3428
  246UNK    H02 2208   3.613   0.547   4.627 -0.9424  0.8947  1.4546
  246UNK    C03 2209   3.454   0.653   4.527 -0.2512  0.1632 -1.3398
  246UNK    C04 2210   3.503   0.783   4.564  0.3117 -0.1676  0.0030
  246UNK    F05 2211   3.391   0.857   4.578  0.4366 -0.0144 -0.4012
  246UNK    F06 2212   3.574   0.782   4.678 -0.1732 -0.5466 -0.2004
  246UNK    F07 2213   3.566   0.824   4.455 -0.2840 -0.1859  0.4390
  246UNK    H08 2214   3.350   0.635   4.549  0.1539 -0.7439 -0.0294
  247UNK    F00 2215   4.276   2.102   0.970  0.1885 -0.5552  0.3380
  247UNK    C01 2216   4.203   2.088   1.085  0.4197  1.0802  0.3954
  247UNK    H02 2217   4.192   2.172   1.154  1.2037  0.1796  1.6627
  247UNK    C03 2218   4.124   1.981   1.099  0.2414  0.1620  0.2589
  247UNK    C04 2219   4.010   1.963   1.197 -0.4193 -0.7575  0.4256
  247UNK    F05 2220   4.024   2.031   1.311 -0.4713 -0.3298  0.2106
  247UNK    F06 2221   3.897   2.007   1.137 -0.7384 -0.2418  0.1232
  247UNK    F07 2222   3.988   1.829   1.215  0.1619 -0.1565  0.0245
  247UNK    H08 2223   4.158   1.890   1.052 -0.0446  0.4920 -0.6180
  248UNK    F00 2224   3.067   2.863   2.726  0.1388 -0.4672 -0.4189
  248UNK    C01 2225   3.020   2.755   2.779  0.0133 -0.0684 -0.1819
  248UNK    H02 2226   3.024   2.669   2.711 -0.5512  0.6598 -1.1567
  248UNK    C03 2227   3.004   2.761   2.912  0.4209 -0.3112 -0.4807
  248UNK    C04 2228   2.997   2.645   3.006  0.5042 -0.2545  0.3008
  248UNK    F05 2229   2.918   2.680   3.110 -0.1079  0.5216 -0.5059
  248UNK    F06 2230   2.948   2.537   2.943 -0.0875 -0.2386 -0.7462
  248UNK    F07 2231   3.114   2.609   3.056 -0.2451  0.1646  0.0659
  248UNK    H08 2232   3.014   2.854   2.966  0.2796 -1.3253  1.3563
  249UNK    F00 2233   1.951   2.531   4.388  0.0471 -0.1689  0.4989
  249UNK    C01 2234   2.067   2.585   4.362  0.2542 -0.4311 -0.0359
  249UNK    H02 2235   2.128   2.558   4.448  0.5458 -0.4394 -0.2448
  249UNK    C03 2236   2.094   2.584   4.226 -0.0433  0.0355 -0.3056
  249UNK    C04 2237   2.226   2.591   4.168  0.0192 -0.1771 -0.6041
  249UNK    F05 2238   2.230   2.654   4.050 -0.3658 -0.0308  0.3069
  249UNK    F06 2239   2.318   2.643   4.249 -0.0314 -0.0709 -0.3396
  249UNK    F07 2240   2.275   2.464   4.159  0.3833  0.1588 -0.2524
  249UNK    H08 2241   2.007   2.608   4.167 -0.4102 -0.4156  0.0409
  250UNK    F00 2242   4.054   0.834   2.513 -0.0601  0.5421  0.1422
  250UNK    C01 2243   4.184   0.870   2.512  0.2965 -0.4653  0.3016
  250UNK    H02 2244   4.230   0.893   2.416  2.4786  0.9007  1.5910
  250UNK    C03 2245   4.244   0.878   2.633  0.6617 -0.7926  0.4602
  250UNK    C04 2246   4.300   0.753   2.689 -0.1525  0.0900 -0.2180
  250UNK    F05 2247   4.413   0.720   2.626  0.0717 -0.0425 -0.2330
  250UNK    F06 2248   4.346   0.774   2.817  0.0921 -0.2772  0.3589
  250UNK    F07 2249   4.214   0.649   2.704 -0.6384 -0.2925 -0.1788
  250UNK    H08 2250   4.265   0.963   2.696  0.5865 -3.0365  3.7283
  251UNK    F00 2251   3.177   4.742   2.359 -0.1246 -0.3714  0.0865
  251UNK    C01 2252   3.176   4.652   2.263  0.2818 -0.0431 -0.0278
  251UNK    H02 2253   3.268   4.660   2.204  0.7887 -1.8104  0.4311
  251UNK    C03 2254   3.062   4.584   2.239 -0.3609  0.5286 -0.2519
  251UNK    C04 2255   3.062   4.454   2.173  0.0669 -0.2758  0.9498
  251UNK    F05 2256   3.146   4.453   2.076  0.3170 -0.1676  0.1366
  251UNK    F06 2257   3.115   4.349   2.243 -0.4086 -0.1601  0.1900
  251UNK    F07 2258   2.937   4.405   2.137 -1.0890 -0.2338 -0.0764
  251UNK    H08 2259   2.966   4.632   2.255  0.8573  2.7703  0.9472
  252UNK    F00 2260   2.439   1.461   0.717  0.0197  0.2521 -1.2217
  252UNK    C01 2261   2.461   1.371   0.620 -0.0916 -0.3928  0.7116
  252UNK    H02 2262   2.483   1.269   0.653  0.9310 -1.2766 -2.3024
  252UNK    C03 2263   2.487   1.411   0.497 -0.7080  0.3178 -0.3713
  252UNK    C04 2264   2.406   1.509   0.424 -0.0421 -0.2192  0.0802
  252UNK    F05 2265   2.272   1.484   0.436 -0.1440  0.0956 -0.4695
  252UNK    F06 2266   2.434   1.643   0.440  0.4223  0.2016 -0.3153
  252UNK    F07 2267   2.444   1.492   0.295 -0.2537 -0.6991  0.0012
  252UNK    H08 2268   2.587   1.397   0.461  0.0287  0.2239  1.5943
  253UNK    F00 2269   4.106   1.025   0.249  0.6546 -0.0768 -0.4023
  253UNK    C01 2270   4.082   1.103   0.144  0.2320  0.1688  0.0324
  253UNK    H02 2271   3.988   1.091   0.091  1.7538  1.0009 -3.0228
  253UNK    C03 2272   4.177   1.183   0.114 -0.1860  0.1187 -0.2678
  253UNK    C04 2273   4.276   1.172  -0.000  0.5919 -0.3533  0.3808
  253UNK    F05 2274   4.223   1.248  -0.097  0.3861  0.2013 -0.2080
  253UNK    F06 2275   4.401   1.218   0.024 -0.5813 -0.0787  0.4142
  253UNK    F07 2276   4.286   1.048  -0.049 -0.0005 -0.6565 -0.2951
  253UNK    H08 2277   4.177   1.279   0.165 -1.2685  0.6222 -1.1920
  254UNK    F00 2278   4.761   4.663   3.590 -0.3568 -0.0914  0.2990
  254UNK    C01 2279   4.816   4.608   3.699  0.4364 -0.2336  0.0134
  254UNK    H02 2280   4.844   4.698   3.753 -2.2405  1.2365 -0.8859
  254UNK    C03 2281   4.894   4.509   3.666 -0.0900  0.4621 -0.1622
  254UNK    C04 2282   4.912   4.382   3.740 -0.0091 -0.7602  0.5125
  254UNK    F05 2283   4.895   4.387   3.871  0.1106  0.4861  0.0386
  254UNK    F06 2284   4.829   4.288   3.694 -0.0115  0.3934  0.1837
  254UNK    F07 2285   5.033   4.321   3.714  0.0205 -0.3496 -0.3237
  254UNK    H08 2286   4.942   4.498   3.570 -1.8083  1.3164 -1.1812
  255UNK    F00 2287   1.540   0.848   3.976  0.3269 -0.3624  0.0181
  255UNK    C01 2288   1.522   0.915   4.089  0.3593 -0.2579  0.0605
  255UNK    H02 2289   1.449   0.856   4.146 -1.8733  1.0701 -1.2637
  255UNK    C03 2290   1.623   0.985   4.136 -0.4084 -0.4703  0.5843
  255UNK    C04 2291   1.751   0.924   4.103 -0.1615  0.3623  0.0129
  255UNK    F05 2292   1.782   0.949   3.972 -0.0696 -0.0150 -0.3567
  255UNK    F06 2293   1.831   1.002   4.174 -0.3215 -0.4677 -0.5273
  255UNK    F07 2294   1.766   0.788   4.133  0.1502  0.2420  0.3476
  255UNK    H08 2295   1.613   1.011   4.241  0.0689  0.3637  0.4336
  256UNK    F00 2296   3.257   2.678   4.825  0.2074  0.2852  0.4751
  256UNK    C01 2297   3.214   2.602   4.920  0.2902  0.0047 -0.1389
  256UNK    H02 2298   3.172   2.507   4.886  1.0949 -0.2421 -0.4713
  256UNK    C03 2299   3.184   2.657   5.042  0.1979  0.0378  0.1583
  256UNK    C04 2300   3.205   2.589   5.172 -0.4786 -0.4230  0.1323
  256UNK    F05 2301   3.133   2.477   5.172  0.0398 -0.1421 -0.3410
  256UNK    F06 2302   3.336   2.584   5.210  0.0336  0.5516  0.2300
  256UNK    F07 2303   3.134   2.667   5.265  0.4477  0.3253  0.0704
  256UNK    H08 2304   3.206   2.762   5.053 -0.6701  0.1347  1.0674
  257UNK    F00 2305   3.032   1.848   0.677  0.5051 -0.6353 -0.7711
  257UNK    C01 2306   3.018   1.736   0.601 -0.1841 -0.1455 -0.6162
  257UNK    H02 2307   3.004   1.644   0.657 -2.7288  0.5430  0.0217
  257UNK    C03 2308   2.990   1.739   0.475  0.8620 -0.7295 -0.0309
  257UNK    C04 2309   2.921   1.619   0.420  0.3384 -0.2752 -0.1493
  257UNK    F05 2310   2.862   1.638   0.297 -0.7235 -0.4985  0.2807
  257UNK    F06 2311   3.017   1.527   0.401  0.2879 -0.0150  0.1560
  257UNK    F07 2312   2.818   1.573   0.496  0.0235  0.6452 -0.3022
  257UNK    H08 2313   3.049   1.800   0.408 -1.8603  0.7781 -1.2472
  258UNK    F00 2314   3.094   0.053   2.785  0.3586  0.4398  0.0208
  258UNK    C01 2315   3.074   0.087   2.659 -0.5259  0.3996 -0.2027
  258UNK    H02 2316   3.164   0.105   2.600  0.1666 -0.2271  0.6391
  258UNK    C03 2317   2.954   0.113   2.620  0.1330  1.1027  0.0630
  258UNK    C04 2318   2.920   0.101   2.474  0.4395 -0.0672 -0.7025
  258UNK    F05 2319   2.903  -0.029   2.426 -0.3475  0.4926  0.1490
  258UNK    F06 2320   2.798   0.163   2.453 -0.0896 -0.0335  0.3092
  258UNK    F07 2321   3.012   0.170   2.402  0.6356  0.0404  0.0752
  258UNK    H08 2322   2.875   0.155   2.680  0.3145  1.6990 -0.1059
  259UNK    F00 2323   0.785   2.928   4.574  0.1349 -0.4497 -0.3537
  259UNK    C01 2324   0.769   3.016   4.676 -0.2339  0.0374 -0.0589
  259UNK    H02 2325   0.697   3.094   4.650 -2.7152 -1.8229  0.8027
  259UNK    C03 2326   0.819   2.994   4.796 -0.8000  0.2540 -0.2847
  259UNK    C04 2327   0.930   3.079   4.853 -0.4830  0.2165  0.2372
  259UNK    F05 2328   0.879   3.203   4.871 -0.1233  0.2001  0.4698
  259UNK    F06 2329   0.968   3.028   4.974 -0.0952  0.3192  0.0358
  259UNK    F07 2330   1.041   3.082   4.769 -0.3847 -0.4071 -0.5778
  259UNK    H08 2331   0.832   2.891   4.826  2.1240  0.4802 -0.4908
  260UNK    F00 2332   2.863   3.909   0.462 -0.2888 -0.1996  0.4610
  260UNK    C01 2333   2.914   4.008   0.539  0.5104  0.7443 -0.1021
  260UNK    H02 2334   2.828   4.066   0.573  1.3649  1.3803  1.0138
  260UNK    C03 2335   3.038   4.023   0.553  0.3054  0.2091  0.0888
  260UNK    C04 2336   3.109   4.151   0.555  0.1662 -0.2273 -0.2028
  260UNK    F05 2337   3.099   4.211   0.433  0.6028  0.1509 -0.6089
  260UNK    F06 2338   3.060   4.217   0.662  0.3039 -0.7237 -0.6633
  260UNK    F07 2339   3.243   4.140   0.569  0.1852 -0.0468 -0.0304
  260UNK    H08 2340   3.085   3.942   0.607 -1.3292  0.2743  1.7029
  261UNK    F00 2341   3.035   2.658   1.353  0.1248 -0.2550  0.0986
  261UNK    C01 2342   2.963   2.578   1.276  0.6837  0.4990 -0.5462
  261UNK    H02 2343   2.883   2.626   1.221  1.4715  0.8667 -1.4014
  261UNK    C03 2344   3.032   2.475   1.222  0.7550 -0.3988 -0.4820
  261UNK    C04 2345   2.992   2.415   1.092 -0.1860 -0.6167 -0.1835
  261UNK    F05 2346   2.864   2.391   1.080  0.1023 -0.1618 -0.1801
  261UNK    F06 2347   3.012   2.507   0.997  0.3126  0.8295  0.0943
  261UNK    F07 2348   3.061   2.303   1.060  0.3299  0.0934 -0.2687
  261UNK    H08 2349   3.084   2.410   1.291 -0.4355  0.3145  1.1372
  262UNK    F00 2350   4.169   4.391   4.734 -0.1014  0.0933  0.1816
  262UNK    C01 2351   4.243   4.378   4.849 -0.3702 -0.0351  0.2073
  262UNK    H02 2352   4.328   4.445   4.849 -1.2172  1.0744  0.4683
  262UNK    C03 2353   4.187   4.321   4.953 -0.1682 -0.2386  0.2332
  262UNK    C04 2354   4.220   4.342   5.087 -0.2682 -0.0331 -0.6687
  262UNK    F05 2355   4.347   4.377   5.112  0.5542 -0.4770 -0.3196
  262UNK    F06 2356   4.151   4.453   5.125  0.0497  0.1958 -0.0338
  262UNK    F07 2357   4.180   4.240   5.171 -0.5607  0.1917  0.4599
  262UNK    H08 2358   4.081   4.303   4.942 -0.3409  1.0674 -0.4193
  263UNK    F00 2359   0.366   2.039   0.905  0.3528 -0.3977  0.5345
  263UNK    C01 2360   0.381   2.127   1.002 -0.6053 -0.6552 -0.0730
  263UNK    H02 2361   0.486   2.134   1.031 -0.2141 -1.6138 -1.1960
  263UNK    C03 2362   0.280   2.182   1.063  0.3079  0.5864  0.2401
  263UNK    C04 2363   0.306   2.297   1.153 -0.4660 -0.5964 -0.5062
  263UNK    F05 2364   0.334   2.412   1.096 -0.3561 -0.0271  0.3471
  263UNK    F06 2365   0.205   2.320   1.245  0.1316 -0.0351 -0.1682
  263UNK    F07 2366   0.423   2.271   1.216 -0.5698 -0.5316 -0.0144
  263UNK    H08 2367   0.190   2.123   1.075  0.2942  0.9019  1.8358
  264UNK    F00 2368   2.380   3.726   4.158 -0.2476 -0.1069 -0.0982
  264UNK    C01 2369   2.394   3.643   4.054  0.4962  0.1523 -0.0588
  264UNK    H02 2370   2.313   3.657   3.982 -0.4072 -1.4343  0.6044
  264UNK    C03 2371   2.492   3.553   4.041  0.2145  0.1482 -0.3520
  264UNK    C04 2372   2.512   3.487   3.915 -0.0467  0.4441 -1.4073
  264UNK    F05 2373   2.585   3.373   3.910  0.7512 -0.1768  0.0186
  264UNK    F06 2374   2.398   3.472   3.846 -0.4445  0.0618  0.0605
  264UNK    F07 2375   2.583   3.577   3.846  0.2513  0.2256  0.3593
  264UNK    H08 2376   2.541   3.505   4.124  0.3037 -1.7063 -1.4140
  265UNK    F00 2377   2.854   1.020   2.607 -0.8531  0.3222 -0.1761
  265UNK    C01 2378   2.834   0.897   2.648  0.1190 -0.1492  0.5133
  265UNK    H02 2379   2.757   0.854   2.584  0.5132  1.9886 -1.5818
  265UNK    C03 2380   2.893   0.859   2.762 -0.8811  1.0809 -0.2448
  265UNK    C04 2381   2.854   0.874   2.901 -0.1888 -0.9034  0.0622
  265UNK    F05 2382   2.967   0.868   2.968  0.2308 -0.0060  0.5402
  265UNK    F06 2383   2.798   0.999   2.915 -0.5246  0.2374  0.1002
  265UNK    F07 2384   2.778   0.776   2.955  0.4343 -0.1698  0.4672
  265UNK    H08 2385   2.987   0.807   2.746 -1.3936  0.7143 -2.3755
  266UNK    F00 2386   4.438   2.869   3.326 -0.1051  0.3122  0.5501
  266UNK    C01 2387   4.363   2.853   3.435 -0.3010  0.1562  0.4682
  266UNK    H02 2388   4.399   2.913   3.519 -1.3561  3.0397 -1.0391
  266UNK    C03 2389   4.242   2.799   3.430 -0.8521 -0.0035 -0.0332
  266UNK    C04 2390   4.207   2.657   3.431  0.5374 -0.0070 -0.0937
  266UNK    F05 2391   4.297   2.579   3.362  0.2835 -0.2066  0.2271
  266UNK    F06 2392   4.192   2.616   3.558 -0.1875  0.2941 -0.0606
  266UNK    F07 2393   4.084   2.634   3.385 -0.0674 -0.2359  0.1046
  266UNK    H08 2394   4.162   2.867   3.405 -0.4403  0.8297  0.8773
  267UNK    F00 2395   3.103   2.590   3.328  0.1213 -0.4022  0.0687
  267UNK    C01 2396   3.018   2.570   3.427 -0.1473 -0.7427  0.3970
  267UNK    H02 2397   2.924   2.538   3.382  0.1318 -0.5060 -0.3725
  267UNK    C03 2398   3.068   2.532   3.546 -0.0858 -0.7003 -0.1339
  267UNK    C04 2399   3.127   2.635   3.637 -0.5914 -0.1736 -0.0723
  267UNK    F05 2400   3.263   2.628   3.624  0.2493  0.0795  0.9860
  267UNK    F06 2401   3.087   2.764   3.623  0.4642 -0.4525  0.1374
  267UNK    F07 2402   3.100   2.587   3.759 -0.0991  0.2059 -0.2468
  267UNK    H08 2403   3.042   2.442   3.600  0.1614 -2.2015 -2.3459
  268UNK    F00 2404   2.839   1.680   2.063  0.6532 -0.8232 -0.5108
  268UNK    C01 2405   2.793   1.675   2.184  0.0179 -0.1943 -0.0124
  268UNK    H02 2406   2.684   1.673   2.181 -0.0121  1.2690 -1.4346
  268UNK    C03 2407   2.871   1.737   2.271  0.1379 -0.1357  0.0824
  268UNK    C04 2408   2.876   1.891   2.287 -0.5814 -0.3679  0.0153
  268UNK    F05 2409   2.987   1.933   2.360  0.4971 -0.2669  0.3020
  268UNK    F06 2410   2.871   1.957   2.164 -0.1139 -0.0362  0.3045
  268UNK    F07 2411   2.769   1.936   2.354  0.2703  0.4480  0.3089
  268UNK    H08 2412   2.957   1.687   2.315  0.3793  0.2024  0.0011
  269UNK    F00 2413   4.169   2.004   0.638  0.3353 -0.3512  0.0902
  269UNK    C01 2414   4.251   1.896   0.648  0.6322  0.6286 -0.1288
  269UNK    H02 2415   4.195   1.807   0.676 -1.3743  1.9271  0.1759
  269UNK    C03 2416   4.383   1.904   0.629 -0.4486  0.4416  1.1284
  269UNK    C04 2417   4.425   1.972   0.502  0.3454 -0.4056 -0.0150
  269UNK    F05 2418   4.350   1.939   0.391  0.2326 -0.6313  0.1815
  269UNK    F06 2419   4.433   2.104   0.521 -0.5015  0.1529 -0.0786
  269UNK    F07 2420   4.547   1.920   0.470 -0.2217  0.1882  0.6069
  269UNK    H08 2421   4.448   1.913   0.715  3.0092  0.9587 -1.3435
  270UNK    F00 2422   0.037   4.024   2.167 -0.7357  0.1811  0.4069
  270UNK    C01 2423  -0.062   3.934   2.140  0.5481  0.5889 -0.0438
  270UNK    H02 2424  -0.015   3.847   2.095  1.2170  0.7461  0.3315
  270UNK    C03 2425  -0.173   3.936   2.217 -0.0722  0.9062  0.0785
  270UNK    C04 2426  -0.292   3.847   2.204 -0.6505  0.2301 -0.1562
  270UNK    F05 2427  -0.406   3.886   2.261  0.5096 -0.4182 -0.2609
  270UNK    F06 2428  -0.313   3.816   2.076 -0.5842 -0.0185 -0.3043
  270UNK    F07 2429  -0.256   3.728   2.248  0.4217 -0.5836  0.2542
  270UNK    H08 2430  -0.180   4.010   2.296 -0.2900 -0.0419  0.9764
  271UNK    F00 2431   3.499   2.360   3.184 -0.3058  0.5327  0.5534
  271UNK    C01 2432   3.636   2.350   3.168  0.3961 -0.1570  0.4547
  271UNK    H02 2433   3.683   2.374   3.263 -0.0945  2.9464  0.0299
  271UNK    C03 2434   3.686   2.272   3.071  0.8966  0.9598 -1.2805
  271UNK    C04 2435   3.815   2.208   3.082  0.0977 -0.3311 -0.4156
  271UNK    F05 2436   3.841   2.151   2.964 -0.3636 -0.2917 -0.3566
  271UNK    F06 2437   3.910   2.302   3.103 -0.2900 -0.2739 -0.4748
  271UNK    F07 2438   3.809   2.124   3.190  0.2626 -0.4011  0.4427
  271UNK    H08 2439   3.657   2.292   2.968 -0.2980  2.0673 -0.7659
  272UNK    F00 2440   3.629   3.974   2.384  0.6928 -0.4129  0.2132
  272UNK    C01 2441   3.659   4.091   2.334 -0.0817  0.2038 -0.5651
  272UNK    H02 2442   3.766   4.111   2.340  0.2135 -1.4006 -0.0282
  272UNK    C03 2443   3.560   4.175   2.312  0.0136  0.0412  0.4344
  272UNK    C04 2444   3.502   4.251   2.423 -0.1936  0.4471  0.0257
  272UNK    F05 2445   3.507   4.174   2.538  0.4393  0.1690  0.0926
  272UNK    F06 2446   3.566   4.366   2.459 -0.0708  0.0613 -0.1820
  272UNK    F07 2447   3.372   4.283   2.405 -0.0303  0.2976 -0.2916
  272UNK    H08 2448   3.495   4.164   2.226  0.5240  0.2804  0.0107
  273UNK    F00 2449   0.459   0.986   0.130  0.3141 -0.3377  0.2813
  273UNK    C01 2450   0.530   1.030   0.230 -0.2242  0.0714 -0.3852
  273UNK    H02 2451   0.472   1.003   0.318 -1.5943  1.9792 -0.6428
  273UNK    C03 2452   0.614   1.135   0.208  0.1762  0.0897  0.4771
  273UNK    C04 2453   0.577   1.275   0.197 -0.4361 -0.7282  0.5336
  273UNK    F05 2454   0.520   1.312   0.314 -0.3365  0.3095 -0.1378
  273UNK    F06 2455   0.686   1.349   0.179 -1.1200 -0.2116  0.1807
  273UNK    F07 2456   0.485   1.302   0.099  0.0694  0.3770 -0.3916
  273UNK    H08 2457   0.720   1.115   0.213  0.7906  2.6852 -0.5296
  274UNK    F00 2458   2.133   0.584   0.387  0.8039 -0.3369 -0.1812
  274UNK    C01 2459   2.189   0.463   0.393  0.2672  0.4823  0.9383
  274UNK    H02 2460   2.272   0.447   0.324  0.4795  2.7593  0.6001
  274UNK    C03 2461   2.132   0.362   0.460 -0.2553  0.2700 -0.0194
  274UNK    C04 2462   1.997   0.303   0.439 -0.5257  0.0867 -0.6084
  274UNK    F05 2463   1.975   0.209   0.535 -0.3177  0.1458  0.5492
  274UNK    F06 2464   1.905   0.400   0.432 -0.0727 -0.3714 -0.1339
  274UNK    F07 2465   2.002   0.233   0.321  0.5637  0.1219 -0.0149
  274UNK    H08 2466   2.197   0.297   0.516 -0.5523 -0.5712 -0.6186
  275UNK    F00 2467   2.739   4.722   2.641 -0.0603 -0.0109 -0.3434
  275UNK    C01 2468   2.622   4.721   2.580 -0.2325 -0.7386 -0.1675
  275UNK    H02 2469   2.625   4.768   2.481  1.5122  1.1827  0.7331
  275UNK    C03 2470   2.519   4.680   2.650  0.5063 -0.9215 -0.4440
  275UNK    C04 2471   2.442   4.560   2.636 -0.6925  0.2274  0.5623
  275UNK    F05 2472   2.505   4.451   2.684  0.1064 -0.2508  0.4460
  275UNK    F06 2473   2.330   4.558   2.715 -0.0878  0.0656  0.0913
  275UNK    F07 2474   2.412   4.552   2.506 -0.1118  0.1180  0.4913
  275UNK    H08 2475   2.486   4.741   2.733 -1.0403  0.2250 -1.8152
  276UNK    F00 2476   3.292   3.364   3.554  0.2252  0.1123 -0.2324
  276UNK    C01 2477   3.307   3.439   3.444  0.8114  0.6169  0.4745
  276UNK    H02 2478   3.283   3.391   3.350 -1.0406  2.4566 -0.0526
  276UNK    C03 2479   3.390   3.542   3.441 -0.0599 -0.1691  0.9040
  276UNK    C04 2480   3.378   3.658   3.353  0.2688 -0.1627 -0.5519
  276UNK    F05 2481   3.308   3.632   3.238  0.2200  0.7779 -0.1303
  276UNK    F06 2482   3.303   3.754   3.420 -0.3107 -0.1738 -0.3922
  276UNK    F07 2483   3.494   3.727   3.332 -0.1998 -0.0661  0.1326
  276UNK    H08 2484   3.447   3.562   3.530  0.9054  3.4120 -0.3538
  277UNK    F00 2485   2.787   4.657   4.276 -0.4655  0.1398 -0.4488
  277UNK    C01 2486   2.796   4.593   4.389  0.2671 -0.4719 -0.3018
  277UNK    H02 2487   2.744   4.653   4.464  0.1880 -0.6142 -0.2431
  277UNK    C03 2488   2.908   4.532   4.415  0.1880 -0.0851  0.1198
  277UNK    C04 2489   2.929   4.433   4.519  0.2570 -0.5057 -0.3052
  277UNK    F05 2490   2.890   4.488   4.635 -0.4262  0.6624 -0.7868
  277UNK    F06 2491   2.857   4.317   4.501 -0.5346 -0.2912  0.1673
  277UNK    F07 2492   3.057   4.399   4.542  0.2551  0.7314  0.6257
  277UNK    H08 2493   2.999   4.559   4.363  1.2988 -2.0200  0.9763
  278UNK    F00 2494   2.992   3.035   0.918  0.1734  0.4469 -0.4458
  278UNK    C01 2495   2.909   2.937   0.954  0.0687  0.1453 -0.5924
  278UNK    H02 2496   2.956   2.863   1.020 -1.2364  0.3607  0.6426
  278UNK    C03 2497   2.785   2.939   0.907 -0.3611 -0.4493  0.4101
  278UNK    C04 2498   2.665   2.894   0.969  0.3004  0.2231  0.2234
  278UNK    F05 2499   2.614   2.980   1.061  0.3240  0.1857  0.1184
  278UNK    F06 2500   2.566   2.849   0.888 -0.0685  0.3521  0.3124
  278UNK    F07 2501   2.697   2.783   1.039  0.1196 -0.0300 -1.0558
  278UNK    H08 2502   2.761   2.984   0.811 -1.7363 -0.0094  0.9362
  279UNK    F00 2503   2.374   0.694   3.954 -0.9639 -0.1376 -0.2155
  279UNK    C01 2504   2.419   0.806   4.006 -0.1728  0.0051 -0.2229
  279UNK    H02 2505   2.493   0.784   4.083 -0.5570 -2.6594 -0.5242
  279UNK    C03 2506   2.393   0.918   3.947 -0.2856  0.3861 -0.1579
  279UNK    C04 2507   2.478   1.037   3.951 -0.1882 -0.0154  0.2751
  279UNK    F05 2508   2.518   1.070   4.071  0.3730 -0.5190  0.1705
  279UNK    F06 2509   2.591   1.023   3.874  0.1160  0.1198 -0.2871
  279UNK    F07 2510   2.399   1.137   3.893  0.5268 -0.0745 -0.1354
  279UNK    H08 2511   2.296   0.949   3.911 -1.0328 -0.5208  0.9802
  280UNK    F00 2512   0.820   1.174   1.728  0.2826 -0.6778  0.2560
  280UNK    C01 2513   0.792   1.154   1.856 -0.0160 -0.3275  1.2875
  280UNK    H02 2514   0.861   1.073   1.882  1.4182  0.5136  0.2812
  280UNK    C03 2515   0.756   1.259   1.926  0.4321 -0.3244  0.1050
  280UNK    C04 2516   0.732   1.266   2.072 -0.1793 -0.2523  0.1640
  280UNK    F05 2517   0.845   1.299   2.133 -0.3321  0.3043 -0.4581
  280UNK    F06 2518   0.658   1.373   2.098  0.0127  0.2840  0.5412
  280UNK    F07 2519   0.686   1.159   2.129 -0.1041  0.1239  0.0297
  280UNK    H08 2520   0.782   1.353   1.878 -0.4076 -0.6820 -1.0977
  281UNK    F00 2521   4.835   3.500   0.880 -0.7451 -0.2068 -0.2699
  281UNK    C01 2522   4.896   3.606   0.825  0.0512 -0.0284  0.3602
  281UNK    H02 2523   4.915   3.683   0.899  3.0352  0.7287 -1.0050
  281UNK    C03 2524   4.891   3.642   0.696  0.1350  0.8033 -0.1807
  281UNK    C04 2525   4.945   3.561   0.584 -0.0198  0.4498 -0.0601
  281UNK    F05 2526   4.852   3.483   0.517 -0.0474 -0.7022  0.4344
  281UNK    F06 2527   5.006   3.630   0.491  0.2582 -0.2077  0.1222
  281UNK    F07 2528   5.046   3.474   0.618 -0.2505  0.2996  0.4254
  281UNK    H08 2529   4.870   3.744   0.669  2.0837  0.7073 -2.3957
  282UNK    F00 2530   3.335   1.695   4.784  0.2959 -0.1541  0.4219
  282UNK    C01 2531   3.420   1.628   4.867 -0.4785  0.9505  0.1723
  282UNK    H02 2532   3.525   1.652   4.854  0.3144  0.0606  3.7158
  282UNK    C03 2533   3.380   1.514   4.922 -0.0924 -0.1695 -0.0114
  282UNK    C04 2534   3.261   1.504   5.014 -0.8170 -0.4250  0.3881
  282UNK    F05 2535   3.152   1.433   4.964  0.8274  0.1456 -0.1591
  282UNK    F06 2536   3.282   1.424   5.121 -0.3321  0.5635 -0.0740
  282UNK    F07 2537   3.217   1.629   5.049 -0.5067 -0.0511  0.0782
  282UNK    H08 2538   3.455   1.440   4.945 -1.9005 -1.1402  3.6534
  283UNK    F00 2539   2.514   0.916   1.143  0.1223 -0.2726 -0.1647
  283UNK    C01 2540   2.592   0.896   1.035 -0.8808  0.0649  0.6503
  283UNK    H02 2541   2.690   0.923   1.075  0.4096 -2.7005 -0.4115
  283UNK    C03 2542   2.547   0.890   0.912 -0.8775 -0.3878  0.2547
  283UNK    C04 2543   2.632   0.844   0.798 -0.0865 -0.1039  0.5423
  283UNK    F05 2544   2.592   0.890   0.673 -0.0513 -0.5823  0.0982
  283UNK    F06 2545   2.764   0.882   0.816  0.4107  0.0416  0.3680
  283UNK    F07 2546   2.616   0.704   0.801 -0.0203 -0.0548  0.0220
  283UNK    H08 2547   2.492   0.977   0.879  0.4383  0.3186 -0.1603
  284UNK    F00 2548   0.256   2.031   0.465  0.2367  0.0906 -0.0112
  284UNK    C01 2549   0.334   1.928   0.469 -0.8725 -0.3487 -0.0030
  284UNK    H02 2550   0.434   1.955   0.502 -0.7010 -1.4078  0.3901
  284UNK    C03 2551   0.311   1.837   0.373  0.0765 -0.3491  0.4529
  284UNK    C04 2552   0.360   1.703   0.388  0.3345  0.8473  0.4608
  284UNK    F05 2553   0.482   1.692   0.441 -0.5247 -0.2434 -0.0496
  284UNK    F06 2554   0.268   1.629   0.453 -0.1838 -0.2689  0.1361
  284UNK    F07 2555   0.359   1.634   0.269  0.1394 -0.3367 -0.0156
  284UNK    H08 2556   0.254   1.861   0.285  1.2416 -0.1050 -0.2459
  285UNK    F00 2557   2.483   0.899   4.669 -0.5587  0.4198  0.2736
  285UNK    C01 2558   2.414   0.812   4.744  0.3413  0.1140 -0.3259
  285UNK    H02 2559   2.358   0.745   4.679 -1.2942  2.7238 -1.7572
  285UNK    C03 2560   2.387   0.851   4.868  0.0137  1.2937 -0.2099
  285UNK    C04 2561   2.382   0.759   4.981  0.3815 -0.4124 -0.2782
  285UNK    F05 2562   2.331   0.820   5.091  0.1191 -0.1064 -0.0942
  285UNK    F06 2563   2.304   0.649   4.955 -0.0433 -0.7385 -0.1169
  285UNK    F07 2564   2.498   0.701   5.026  0.4138  0.1361 -0.5667
  285UNK    H08 2565   2.381   0.955   4.898 -1.0307  0.6948  1.8326
  286UNK    F00 2566   2.456   0.076   2.104 -0.1199 -0.4962  0.0106
  286UNK    C01 2567   2.366   0.144   2.035 -0.1639 -0.0173  0.4748
  286UNK    H02 2568   2.272   0.091   2.050 -0.3182 -0.3412 -1.4727
  286UNK    C03 2569   2.380   0.275   2.039 -0.0886  0.3101  0.6773
  286UNK    C04 2570   2.472   0.348   1.950  0.1476 -0.5604 -0.1379
  286UNK    F05 2571   2.503   0.476   1.994  0.1001  0.2094 -0.4926
  286UNK    F06 2572   2.592   0.299   1.907 -0.6895  0.0864 -0.4081
  286UNK    F07 2573   2.413   0.371   1.835 -0.1288 -0.0137  0.2866
  286UNK    H08 2574   2.368   0.318   2.137 -0.1976 -2.3496  1.9293
  287UNK    F00 2575   1.430   3.538   1.904  0.5564  0.5807  0.6570
  287UNK    C01 2576   1.324   3.494   1.830 -0.5579  0.3424 -0.2925
  287UNK    H02 2577   1.322   3.530   1.727 -1.5554 -2.4892 -1.3741
  287UNK    C03 2578   1.247   3.395   1.878  0.3006  0.3106 -0.6000
  287UNK    C04 2579   1.164   3.311   1.793  0.0175  0.5234 -0.2578
  287UNK    F05 2580   1.084   3.229   1.862 -0.0535 -0.0509  0.2075
  287UNK    F06 2581   1.093   3.379   1.691 -0.5866 -0.0523  0.0497
  287UNK    F07 2582   1.241   3.223   1.729 -0.3685  0.6048 -0.2403
  287UNK    H08 2583   1.227   3.386   1.983  0.4756 -0.5135 -0.6335
  288UNK    F00 2584   0.506   2.018   2.902 -0.5224 -0.1299 -0.1571
  288UNK    C01 2585   0.503   2.067   3.025 -0.2154 -0.0606 -0.9318
  288UNK    H02 2586   0.491   2.175   3.011 -0.1183  0.4145  2.0459
  288UNK    C03 2587   0.463   1.993   3.124  0.0366 -0.0305 -0.3425
  288UNK    C04 2588   0.551   1.902   3.199  0.1105 -0.3907 -0.2682
  288UNK    F05 2589   0.627   1.964   3.292  0.1839  0.3133  0.0473
  288UNK    F06 2590   0.480   1.805   3.267 -0.3896  0.3295 -0.1757
  288UNK    F07 2591   0.627   1.836   3.108  0.4609  0.0095 -0.0305
  288UNK    H08 2592   0.357   1.989   3.145  0.3028  1.5657  1.5569
  289UNK    F00 2593   4.601   4.148   3.114  0.4914 -0.0230  0.4664
  289UNK    C01 2594   4.533   4.209   3.208 -0.3168  0.3399 -0.9935
  289UNK    H02 2595   4.451   4.278   3.187  0.1462  1.6914  1.2300
  289UNK    C03 2596   4.582   4.188   3.335 -0.7300  0.5375  1.6358
  289UNK    C04 2597   4.520   4.215   3.468 -0.1448  0.7517  0.3398
  289UNK    F05 2598   4.402   4.149   3.467  0.3331  0.4567 -0.0886
  289UNK    F06 2599   4.607   4.166   3.555 -0.2398  0.3662  0.1511
  289UNK    F07 2600   4.501   4.351   3.489 -0.1848  0.4667 -0.4049
  289UNK    H08 2601   4.670   4.125   3.340 -1.2620 -0.1713  2.2729
  290UNK    F00 2602   1.793   3.363   3.386  0.3363 -0.6687  0.3038
  290UNK    C01 2603   1.825   3.248   3.316  0.6728  0.2136 -0.2001
  290UNK    H02 2604   1.774   3.162   3.360 -2.3047  1.3171 -1.2123
  290UNK    C03 2605   1.905   3.256   3.210  0.6678  0.4528  0.3290
  290UNK    C04 2606   1.865   3.340   3.096 -0.0585 -0.0332  0.4650
  290UNK    F05 2607   1.890   3.277   2.974  0.0277  0.0496  0.1274
  290UNK    F06 2608   1.731   3.366   3.082 -0.0536  0.2359  0.1755
  290UNK    F07 2609   1.931   3.455   3.093 -0.6063 -0.4455  0.0593
  290UNK    H08 2610   2.001   3.207   3.212 -0.2602 -1.4099  0.9394
  291UNK    F00 2611   3.811   0.112   3.574  0.4850  0.7826 -0.2345
  291UNK    C01 2612   3.862   0.020   3.658 -0.3518 -0.1124  0.4027
  291UNK    H02 2613   3.780  -0.043   3.693 -1.0588  0.4743 -0.1723
  291UNK    C03 2614   3.990  -0.016   3.631  0.7704  0.7217 -0.3887
  291UNK    C04 2615   4.107   0.055   3.688 -0.8356 -0.0596  0.4713
  291UNK    F05 2616   4.160  -0.021   3.784 -0.0187  0.1800  0.4411
  291UNK    F06 2617   4.194   0.073   3.589 -0.3800  0.4509  0.2831
  291UNK    F07 2618   4.079   0.175   3.745 -1.0872  0.1976 -0.2944
  291UNK    H08 2619   4.004  -0.073   3.540 -1.9523 -0.2123 -0.3223
  292UNK    F00 2620   3.708   3.369   3.866 -0.5994  0.6289  0.0617
  292UNK    C01 2621   3.696   3.281   3.769 -0.7885 -0.0948 -0.3220
  292UNK    H02 2622   3.737   3.185   3.799  1.1617  1.3182  1.8799
  292UNK    C03 2623   3.671   3.321   3.646  0.4796  0.4438  0.6039
  292UNK    C04 2624   3.768   3.416   3.574  0.5415 -0.1826  0.3360
  292UNK    F05 2625   3.873   3.372   3.505  0.0667  0.6610 -0.3855
  292UNK    F06 2626   3.702   3.487   3.478 -0.0551 -0.2819 -0.1665
  292UNK    F07 2627   3.806   3.509   3.663 -0.6349  0.2356  0.5790
  292UNK    H08 2628   3.574   3.310   3.601 -0.0900 -1.5182  2.1454
  293UNK    F00 2629   3.247   3.945   0.892 -0.1055  0.2277  0.2065
  293UNK    C01 2630   3.325   3.892   0.990 -0.2175  0.2597  0.2045
  293UNK    H02 2631   3.270   3.838   1.067 -0.1437  1.0006  0.7839
  293UNK    C03 2632   3.450   3.931   0.998  0.7109  0.1584  0.3067
  293UNK    C04 2633   3.485   4.055   1.070 -0.0105 -0.3364  0.3226
  293UNK    F05 2634   3.460   4.061   1.203 -0.7570  0.3364  0.1030
  293UNK    F06 2635   3.622   4.061   1.071  0.1197 -0.3611 -0.4242
  293UNK    F07 2636   3.453   4.167   1.006  0.0284 -0.0616  0.1318
  293UNK    H08 2637   3.522   3.892   0.927 -0.0134 -2.9055  1.0993
  294UNK    F00 2638   3.122   1.921   0.210  0.3594 -0.0431 -0.0342
  294UNK    C01 2639   3.099   1.923   0.080  0.0839  0.0327  0.7313
  294UNK    H02 2640   3.040   1.833   0.060  1.2603 -0.8011  0.9067
  294UNK    C03 2641   3.151   2.016  -0.005  0.4547  0.8212 -0.6090
  294UNK    C04 2642   3.136   2.159   0.017 -0.2578 -0.7783  0.2674
  294UNK    F05 2643   3.231   2.204   0.105  0.3054  0.1043 -0.1376
  294UNK    F06 2644   3.166   2.218  -0.102  0.2395 -0.0835  0.4611
  294UNK    F07 2645   3.011   2.197   0.058  0.0047  0.8285 -0.2134
  294UNK    H08 2646   3.205   1.985  -0.094 -1.2427 -1.1988 -1.0037
  295UNK    F00 2647   3.635   1.546   4.180 -0.4174  0.1778 -0.4904
  295UNK    C01 2648   3.618   1.591   4.302 -0.1864 -0.2837 -0.5166
  295UNK    H02 2649   3.612   1.510   4.375  3.7601 -0.4068 -0.1151
  295UNK    C03 2650   3.548   1.701   4.308 -0.1131  0.1233 -0.4774
  295UNK    C04 2651   3.468   1.767   4.416 -0.0086  0.1560  0.0766
  295UNK    F05 2652   3.425   1.687   4.510  0.5195  0.3918  0.3800
  295UNK    F06 2653   3.549   1.859   4.466 -0.0657 -0.1678  0.1224
  295UNK    F07 2654   3.366   1.838   4.361  0.0919  0.7078 -0.3623
  295UNK    H08 2655   3.521   1.752   4.216  0.7408  1.3550 -0.0683
  296UNK    F00 2656   4.089   1.202   1.446 -0.0514  0.3216 -0.8102
  296UNK    C01 2657   3.981   1.120   1.454  0.2228  0.0464  0.9112
  296UNK    H02 2658   3.902   1.165   1.514 -1.7129 -1.2562 -0.5535
  296UNK    C03 2659   4.002   0.986   1.436  0.0875  0.0722  0.4094
  296UNK    C04 2660   3.904   0.886   1.401  0.0903 -0.3060 -0.1450
  296UNK    F05 2661   3.886   0.870   1.271  0.4292 -0.1436 -0.4753
  296UNK    F06 2662   3.942   0.764   1.439  0.3147  0.4141 -0.3776
  296UNK    F07 2663   3.783   0.932   1.449 -0.0448 -0.0538  0.0759
  296UNK    H08 2664   4.102   0.947   1.426 -0.1708 -0.1643 -1.6781
  297UNK    F00 2665   0.718   0.588   3.152 -0.4961 -0.2514  0.5373
  297UNK    C01 2666   0.762   0.529   3.042  0.2589 -0.5497 -0.4740
  297UNK    H02 2667   0.746   0.421   3.040 -0.5416 -0.5837  2.4505
  297UNK    C03 2668   0.807   0.609   2.946 -0.2001  0.8485 -0.2271
  297UNK    C04 2669   0.933   0.689   2.964  0.2325  0.5043 -0.2684
  297UNK    F05 2670   1.027   0.589   2.961  0.1783 -0.2763  0.0657
  297UNK    F06 2671   0.969   0.774   2.861  0.7993 -0.5683  0.1731
  297UNK    F07 2672   0.947   0.744   3.086  0.1542  0.1629  0.1295
  297UNK    H08 2673   0.778   0.615   2.842  0.8576  2.9903 -0.4610
  298UNK    F00 2674   0.310   1.843   2.550  0.0780  0.4992  0.2904
  298UNK    C01 2675   0.386   1.796   2.649 -0.6057  0.2884 -0.9587
  298UNK    H02 2676   0.466   1.864   2.676  0.4069 -1.8593  2.0319
  298UNK    C03 2677   0.355   1.688   2.724  0.0409  0.3702 -0.6935
  298UNK    C04 2678   0.213   1.691   2.771 -0.0381  0.3413 -0.3164
  298UNK    F05 2679   0.138   1.652   2.667 -0.2033  0.4564  0.4912
  298UNK    F06 2680   0.194   1.604   2.876  0.3958  0.2033  0.0862
  298UNK    F07 2681   0.171   1.804   2.829  0.4665 -0.4898 -0.4845
  298UNK    H08 2682   0.387   1.592   2.686 -2.8460 -0.1257 -2.0761
  299UNK    F00 2683   2.673   2.463   4.036  0.3131 -0.3857  0.0821
  299UNK    C01 2684   2.703   2.579   3.962 -0.1916 -0.0223  0.1769
  299UNK    H02 2685   2.701   2.666   4.028  0.1169  1.7063 -1.9610
  299UNK    C03 2686   2.760   2.577   3.843 -0.3529  0.2805  0.1219
  299UNK    C04 2687   2.788   2.700   3.775 -0.3088 -0.0515 -0.6775
  299UNK    F05 2688   2.890   2.771   3.822  0.1881  0.1520 -0.3301
  299UNK    F06 2689   2.809   2.685   3.645 -0.1873 -0.2531 -0.2457
  299UNK    F07 2690   2.685   2.785   3.790 -0.1215  0.1108 -0.0153
  299UNK    H08 2691   2.788   2.484   3.796  2.5333 -0.0219  2.1839
  300UNK    F00 2692   4.149   1.570   2.260 -0.4570  0.1128  0.1621
  300UNK    C01 2693   4.164   1.466   2.338  0.0452 -0.6085  0.6136
  300UNK    H02 2694   4.070   1.413   2.356 -0.0593 -0.3483  0.8389
  300UNK    C03 2695   4.276   1.396   2.339  0.1329 -0.5515 -0.2175
  300UNK    C04 2696   4.287   1.278   2.423  0.3075  0.1741 -0.7117
  300UNK    F05 2697   4.201   1.296   2.530 -0.2875  0.0234 -0.0630
  300UNK    F06 2698   4.255   1.155   2.368 -0.2127  0.0651 -0.0471
  300UNK    F07 2699   4.406   1.252   2.487 -0.2344  0.9520  1.0196
  300UNK    H08 2700   4.361   1.408   2.272  0.0423  1.1648 -0.0859
  301UNK    F00 2701   4.323   4.133   2.189 -0.2587 -0.3605 -0.3514
  301UNK    C01 2702   4.385   4.250   2.163  0.1861 -0.0610  0.1828
  301UNK    H02 2703   4.373   4.317   2.248  1.1645 -1.6731  1.6579
  301UNK    C03 2704   4.427   4.282   2.046 -0.2765 -0.5345 -0.3028
  301UNK    C04 2705   4.561   4.344   2.027  0.7212 -0.5918  0.0145
  301UNK    F05 2706   4.584   4.430   2.132 -0.3216 -0.1422 -0.3510
  301UNK    F06 2707   4.642   4.240   2.039  0.5338  0.1785 -0.7834
  301UNK    F07 2708   4.571   4.408   1.910 -0.4840 -0.2741  0.2574
  301UNK    H08 2709   4.384   4.229   1.963 -0.6784  0.8939 -1.0420
  302UNK    F00 2710   0.931   4.598   2.557  0.0201 -0.1393 -0.4644
  302UNK    C01 2711   0.872   4.589   2.681 -0.0478  0.7782  0.1373
  302UNK    H02 2712   0.882   4.500   2.743  3.6220  2.2962  2.0113
  302UNK    C03 2713   0.816   4.700   2.723 -0.0408  0.4654 -0.0204
  302UNK    C04 2714   0.874   4.832   2.697  0.5326  0.4817 -0.5646
  302UNK    F05 2715   0.811   4.911   2.785  0.4576 -0.0754  0.3879
  302UNK    F06 2716   1.001   4.832   2.737 -0.0327  0.0067  0.0456
  302UNK    F07 2717   0.854   4.899   2.580 -0.0978  0.1183  0.3674
  302UNK    H08 2718   0.779   4.693   2.824  3.1302 -1.0688  1.1884
  303UNK    F00 2719   1.282   0.040   3.161  0.1482  0.6271 -0.0226
  303UNK    C01 2720   1.226   0.021   3.040  0.7173 -0.2623  0.1267
  303UNK    H02 2721   1.166   0.109   3.020  1.2995 -0.3325 -2.2528
  303UNK    C03 2722   1.200  -0.096   2.990  0.3594 -0.3975  0.0148
  303UNK    C04 2723   1.098  -0.184   3.044 -0.3187 -0.0860  0.2938
  303UNK    F05 2724   0.981  -0.126   3.073 -0.0608  0.2148 -0.2560
  303UNK    F06 2725   1.077  -0.271   2.941 -0.0077 -0.2451  0.1093
  303UNK    F07 2726   1.139  -0.255   3.154 -0.1645 -0.0935 -0.5174
  303UNK    H08 2727   1.242  -0.140   2.901  0.0171 -2.0407  0.6226
  304UNK    F00 2728   4.734   2.834   4.062 -0.0203  0.2930  0.3359
  304UNK    C01 2729   4.659   2.887   3.960  0.2977 -0.5733 -0.7053
  304UNK    H02 2730   4.707   2.978   3.924 -0.1256 -1.1040 -2.7289
  304UNK    C03 2731   4.534   2.856   3.954 -0.5548  0.5070 -0.5372
  304UNK    C04 2732   4.449   2.893   3.839  0.1109 -0.1451 -0.2892
  304UNK    F05 2733   4.464   3.020   3.804  0.9259  0.4969 -0.1667
  304UNK    F06 2734   4.475   2.828   3.724  0.1346  0.0427 -0.0630
  304UNK    F07 2735   4.316   2.868   3.866  0.7754 -0.2461  0.3659
  304UNK    H08 2736   4.523   2.760   4.002  1.7423  0.1747 -0.5412
  305UNK    F00 2737   3.606   1.615   0.996  0.5368  0.1584 -0.1729
  305UNK    C01 2738   3.502   1.610   1.081  1.0190 -0.0545 -0.3380
  305UNK    H02 2739   3.539   1.576   1.178 -1.0899  2.4386  1.4674
  305UNK    C03 2740   3.411   1.706   1.065 -0.5770  0.5216  0.2873
  305UNK    C04 2741   3.317   1.714   0.956  0.1322  0.4639  0.5242
  305UNK    F05 2742   3.363   1.681   0.830  0.2176 -0.0346  0.1114
  305UNK    F06 2743   3.220   1.623   0.984 -0.4792  0.2260 -0.3580
  305UNK    F07 2744   3.266   1.841   0.960 -0.0353  0.0453 -0.0846
  305UNK    H08 2745   3.391   1.780   1.141 -2.4022  0.7243 -0.3529
  306UNK    F00 2746   1.832   3.729   3.259  0.2005 -0.0417  0.4329
  306UNK    C01 2747   1.957   3.759   3.212 -0.3245 -0.2166  0.1919
  306UNK    H02 2748   1.987   3.708   3.121  1.3561  2.4886 -0.8772
  306UNK    C03 2749   2.041   3.824   3.294  0.0244  0.0974 -0.0531
  306UNK    C04 2750   2.100   3.767   3.418  0.1925 -0.2378  0.0480
  306UNK    F05 2751   2.147   3.857   3.506 -0.1180  0.1755  0.3457
  306UNK    F06 2752   1.997   3.702   3.484  0.3476 -0.0114  0.5411
  306UNK    F07 2753   2.202   3.683   3.396  0.4153  0.3894  0.0106
  306UNK    H08 2754   2.077   3.924   3.274  0.2202  0.3866  1.5893
  307UNK    F00 2755   1.399   3.484   0.396 -0.2339 -0.4230  0.0180
  307UNK    C01 2756   1.453   3.452   0.517  0.4695  0.3747 -0.0642
  307UNK    H02 2757   1.529   3.374   0.516  2.6600  2.3871 -0.0028
  307UNK    C03 2758   1.444   3.532   0.620 -0.0169  0.3130  0.0616
  307UNK    C04 2759   1.539   3.540   0.731 -0.1447  0.2202  0.2599
  307UNK    F05 2760   1.603   3.422   0.751  0.4756 -0.1452 -0.1026
  307UNK    F06 2761   1.627   3.644   0.724  0.3536  0.4558  0.3712
  307UNK    F07 2762   1.467   3.562   0.838  0.2622 -0.0297  0.6427
  307UNK    H08 2763   1.388   3.623   0.604  0.4973  0.5830 -0.2283
  308UNK    F00 2764   0.555   4.703   1.018 -0.1994 -0.2327 -0.0718
  308UNK    C01 2765   0.580   4.594   1.093  0.0201  0.0870  0.5238
  308UNK    H02 2766   0.654   4.613   1.171  1.4768  0.6121 -0.9372
  308UNK    C03 2767   0.491   4.501   1.088  0.4539  0.3858  0.1712
  308UNK    C04 2768   0.481   4.393   1.187  0.0510  1.0387  0.1361
  308UNK    F05 2769   0.602   4.383   1.249  0.0497 -0.2704 -0.4102
  308UNK    F06 2770   0.379   4.405   1.280 -0.7911 -0.4600 -0.5621
  308UNK    F07 2771   0.455   4.279   1.127 -0.0934  0.3682  0.4013
  308UNK    H08 2772   0.398   4.519   1.037 -0.0043  0.0964  0.9002
  309UNK    F00 2773   3.746   3.346   1.634  0.2269  0.3435  0.3521
  309UNK    C01 2774   3.680   3.290   1.525 -0.1903 -0.2358  0.1285
  309UNK    H02 2775   3.740   3.218   1.469 -0.5777  1.3316 -2.4480
  309UNK    C03 2776   3.565   3.335   1.485 -0.7042 -0.5869 -0.6538
  309UNK    C04 2777   3.485   3.237   1.414 -0.2513  0.1818  1.0123
  309UNK    F05 2778   3.361   3.280   1.380  0.0333  0.5727  0.4428
  309UNK    F06 2779   3.539   3.218   1.291  0.2400  0.2505 -0.0343
  309UNK    F07 2780   3.477   3.119   1.478  0.4376  0.3032  0.0042
  309UNK    H08 2781   3.518   3.408   1.549  1.5287  0.6788 -0.3425
  310UNK    F00 2782   0.531   3.192   2.426 -0.4747 -0.1583 -0.2527
  310UNK    C01 2783   0.616   3.281   2.487 -0.5633  0.1727  0.1255
  310UNK    H02 2784   0.634   3.368   2.424  3.4459 -0.3388  0.2886
  310UNK    C03 2785   0.711   3.223   2.559  1.0421  0.4680 -0.3172
  310UNK    C04 2786   0.771   3.291   2.673 -0.5704 -0.2696  0.2633
  310UNK    F05 2787   0.859   3.207   2.732 -0.1321 -0.1182  0.2782
  310UNK    F06 2788   0.838   3.409   2.653 -0.1578 -0.4768 -0.4433
  310UNK    F07 2789   0.662   3.323   2.751 -0.0574 -0.4219  0.1228
  310UNK    H08 2790   0.784   3.159   2.512  0.3274 -0.0287 -0.7842
  311UNK    F00 2791   3.270   2.943   4.238 -0.3368  0.1281  0.1407
  311UNK    C01 2792   3.392   2.903   4.196 -0.4778 -1.4123 -0.0472
  311UNK    H02 2793   3.449   2.851   4.273  0.9211  1.8962  1.3767
  311UNK    C03 2794   3.446   2.952   4.084 -0.2157 -0.0478 -0.4412
  311UNK    C04 2795   3.569   2.898   4.022  0.1911 -0.1160 -0.2864
  311UNK    F05 2796   3.640   3.003   3.975  0.0970  0.9141  0.2216
  311UNK    F06 2797   3.637   2.848   4.124 -0.0697 -0.5226 -0.5407
  311UNK    F07 2798   3.533   2.816   3.917 -0.2065  0.3373 -0.2989
  311UNK    H08 2799   3.437   3.059   4.068  0.0387  0.1292  0.5550
  312UNK    F00 2800   2.330   3.551   4.702 -0.1828  0.3841  0.0537
  312UNK    C01 2801   2.427   3.471   4.651 -0.0668 -0.1326  0.7006
  312UNK    H02 2802   2.420   3.372   4.695  1.4163 -0.2850  0.6428
  312UNK    C03 2803   2.527   3.520   4.579  0.5832  0.0314  0.5971
  312UNK    C04 2804   2.614   3.431   4.499  0.1570  0.4416 -0.2339
  312UNK    F05 2805   2.542   3.337   4.442  0.2692 -0.4749 -0.0002
  312UNK    F06 2806   2.683   3.498   4.411 -0.5950  0.0007 -0.4238
  312UNK    F07 2807   2.703   3.359   4.578  0.1368  0.1215  0.2414
  312UNK    H08 2808   2.503   3.609   4.522 -1.2744 -1.6184 -1.3832
  313UNK    F00 2809   0.152   0.981   3.063 -0.2856 -0.3930  0.0411
  313UNK    C01 2810   0.131   1.091   3.135  0.0607 -0.4783 -0.4120
  313UNK    H02 2811   0.198   1.173   3.110 -1.1810  0.7710  0.1858
  313UNK    C03 2812   0.030   1.095   3.222  0.3107  0.1697 -0.6928
  313UNK    C04 2813  -0.067   1.211   3.261  0.2588  0.7854 -0.0344
  313UNK    F05 2814  -0.079   1.217   3.395  0.2844  0.1050 -0.1489
  313UNK    F06 2815  -0.023   1.326   3.211 -0.0551 -0.1190 -0.0398
  313UNK    F07 2816  -0.182   1.202   3.193  0.2329 -0.1243  0.2893
  313UNK    H08 2817  -0.018   1.000   3.244  1.0487 -0.3983 -1.4541
  314UNK    F00 2818   4.650   4.781   1.137  0.1759  0.0391  0.1502
  314UNK    C01 2819   4.538   4.720   1.181  0.1062 -0.8638  0.2655
  314UNK    H02 2820   4.489   4.657   1.106 -0.4042 -1.0580  0.7530
  314UNK    C03 2821   4.476   4.770   1.287  0.0708 -0.1677  0.1130
  314UNK    C04 2822   4.408   4.900   1.269 -1.0103  0.0881  0.8593
  314UNK    F05 2823   4.394   4.960   1.391 -0.4021  0.1785  0.5970
  314UNK    F06 2824   4.478   4.983   1.184 -0.2059 -0.1684  0.2940
  314UNK    F07 2825   4.289   4.883   1.209  0.1725 -0.1407  0.2966
  314UNK    H08 2826   4.485   4.725   1.385  0.2450 -1.6479 -0.5493
  315UNK    F00 2827   3.589   0.070   0.679  0.3246 -0.1331  0.3888
  315UNK    C01 2828   3.649  -0.021   0.751  0.1911 -0.7145  0.5837
  315UNK    H02 2829   3.578  -0.071   0.816 -1.5397  0.2253 -0.5103
  315UNK    C03 2830   3.778  -0.055   0.737  0.8381  0.3280 -0.1709
  315UNK    C04 2831   3.869  -0.031   0.624 -0.0561  0.2799  0.4026
  315UNK    F05 2832   3.852   0.085   0.562  0.3750 -0.2009 -0.3212
  315UNK    F06 2833   4.002  -0.044   0.655 -0.5932  0.1359  0.3404
  315UNK    F07 2834   3.860  -0.120   0.519 -0.1495 -0.5712  0.5123
  315UNK    H08 2835   3.825  -0.094   0.826 -2.4081 -1.6179  0.8337
  316UNK    F00 2836   4.153   3.701   1.177 -0.4728 -0.0062  0.6499
  316UNK    C01 2837   4.055   3.766   1.117 -0.4803  0.2585  0.0838
  316UNK    H02 2838   3.958   3.754   1.164 -1.0379 -0.8025 -1.2750
  316UNK    C03 2839   4.075   3.808   0.996 -0.5710 -0.0557  0.1994
  316UNK    C04 2840   4.022   3.929   0.932  0.1901  0.5295 -0.3576
  316UNK    F05 2841   4.092   4.035   0.977 -0.2319 -0.1663  0.6487
  316UNK    F06 2842   4.041   3.905   0.801 -0.0738 -0.5297  0.2320
  316UNK    F07 2843   3.890   3.954   0.953  0.4079 -0.2364  0.3272
  316UNK    H08 2844   4.141   3.748   0.935 -0.6327 -1.0306  1.0738
  317UNK    F00 2845   3.797   4.264   0.691 -0.4477  0.7646  0.1426
  317UNK    C01 2846   3.884   4.249   0.792 -0.1431 -0.7616 -0.5226
  317UNK    H02 2847   3.835   4.237   0.888  0.8595  0.8997  0.2358
  317UNK    C03 2848   4.001   4.317   0.784  0.3641  0.6480 -0.0417
  317UNK    C04 2849   4.007   4.451   0.833 -0.4367 -0.5303 -0.1667
  317UNK    F05 2850   4.105   4.522   0.765  0.1444 -0.6727  0.3798
  317UNK    F06 2851   3.895   4.519   0.790 -0.5688  0.2368  0.3135
  317UNK    F07 2852   4.028   4.463   0.970 -0.0770 -0.1850 -0.2055
  317UNK    H08 2853   4.063   4.306   0.696 -0.2162  2.2641 -0.6853
  318UNK    F00 2854   3.254   0.493   0.611 -0.0656  0.2119  0.2533
  318UNK    C01 2855   3.351   0.464   0.529 -0.0522 -0.0267  0.4551
  318UNK    H02 2856   3.337   0.512   0.432  2.7654 -3.4438 -1.8977
  318UNK    C03 2857   3.468   0.422   0.577  0.5099 -0.1195  0.2438
  318UNK    C04 2858   3.587   0.417   0.489 -0.1127  0.8223  0.0971
  318UNK    F05 2859   3.674   0.324   0.539 -0.1099  0.5808  0.1953
  318UNK    F06 2860   3.571   0.361   0.367  0.1140  0.2841  0.2063
  318UNK    F07 2861   3.644   0.537   0.463  0.2446  0.3977  0.2896
  318UNK    H08 2862   3.466   0.342   0.650  0.7324 -0.8855 -0.5750
  319UNK    F00 2863   0.099   1.800   4.568  0.5245 -0.8330  0.1336
  319UNK    C01 2864   0.116   1.828   4.697 -0.8282  0.1063  0.0950
  319UNK    H02 2865   0.129   1.935   4.716  1.0914 -0.0748  0.0301
  319UNK    C03 2866   0.175   1.730   4.768  0.2720 -0.6127 -0.8642
  319UNK    C04 2867   0.321   1.731   4.799  0.0316  1.3040 -0.8856
  319UNK    F05 2868   0.396   1.779   4.696  0.1868 -0.7251  0.1957
  319UNK    F06 2869   0.342   1.809   4.910  0.0412 -0.0422 -0.4898
  319UNK    F07 2870   0.358   1.597   4.813 -0.1023 -0.3451  0.1788
  319UNK    H08 2871   0.116   1.643   4.793 -0.9978  0.2891 -0.6234
  320UNK    F00 2872   0.197   0.072   2.986 -0.8371  0.1055  0.2531
  320UNK    C01 2873   0.304   0.001   2.935  0.1875 -0.0329 -0.6303
  320UNK    H02 2874   0.284  -0.103   2.962 -2.2039  0.5993  0.3285
  320UNK    C03 2875   0.423   0.051   2.939 -0.2420  0.6431 -0.2661
  320UNK    C04 2876   0.503   0.037   3.058 -0.1832 -0.2908 -0.2104
  320UNK    F05 2877   0.594   0.132   3.067  0.0081  0.5249  0.7080
  320UNK    F06 2878   0.437   0.042   3.175 -0.2776 -0.0307  0.2427
  320UNK    F07 2879   0.583  -0.076   3.059  0.2742  0.7934  0.6298
  320UNK    H08 2880   0.480   0.040   2.848 -0.9167 -2.3412 -0.4342
  321UNK    F00 2881   1.364   0.795   1.145  0.0279 -0.2729  0.1454
  321UNK    C01 2882   1.281   0.719   1.077 -0.3348  0.3845 -0.0860
  321UNK    H02 2883   1.202   0.779   1.032  0.1424  0.4911 -0.7950
  321UNK    C03 2884   1.313   0.593   1.066 -0.7478  0.4230  0.0929
  321UNK    C04 2885   1.287   0.510   0.942  0.1335 -0.6675  0.0342
  321UNK    F05 2886   1.174   0.549   0.880  0.0285  0.1486 -0.0807
  321UNK    F06 2887   1.391   0.522   0.852  0.4148  0.0147  0.0131
  321UNK    F07 2888   1.269   0.379   0.969 -0.4910  0.0891 -0.2057
  321UNK    H08 2889   1.400   0.565   1.124  0.0996  0.0802 -1.3000
  322UNK    F00 2890   1.465   0.540   3.843  0.1793 -0.1045 -0.2164
  322UNK    C01 2891   1.543   0.595   3.750 -0.0012  0.2132  0.5275
  322UNK    H02 2892   1.551   0.701   3.773  1.7379  0.0359  0.8721
  322UNK    C03 2893   1.634   0.512   3.706 -0.0513  0.4970  0.2047
  322UNK    C04 2894   1.741   0.544   3.611  0.2574 -0.2167 -0.4039
  322UNK    F05 2895   1.786   0.439   3.541 -0.2621 -0.1806 -0.1757
  322UNK    F06 2896   1.705   0.644   3.524  0.0713  0.0297  0.0561
  322UNK    F07 2897   1.849   0.578   3.688  0.0097  0.1829 -0.0120
  322UNK    H08 2898   1.609   0.407   3.697 -1.5933  0.8226  0.4005
  323UNK    F00 2899   4.741   2.335   0.473  0.1754  0.1881  0.1950
  323UNK    C01 2900   4.613   2.375   0.475  0.5362 -0.5783 -0.1250
  323UNK    H02 2901   4.571   2.357   0.574  1.4408 -0.7788  0.2339
  323UNK    C03 2902   4.542   2.400   0.365 -0.2209 -0.4065 -1.0395
  323UNK    C04 2903   4.487   2.300   0.279  0.7410 -0.1783  0.1059
  323UNK    F05 2904   4.362   2.259   0.318  0.6972 -0.0319  0.4565
  323UNK    F06 2905   4.497   2.332   0.147  0.0389  0.2990 -0.1226
  323UNK    F07 2906   4.545   2.177   0.271 -0.5042  0.1558 -0.1078
  323UNK    H08 2907   4.479   2.487   0.380  0.4659  0.2590 -1.9129
  324UNK    F00 2908   1.606   4.457   3.197 -0.0924  0.4885  0.0598
  324UNK    C01 2909   1.619   4.327   3.201  0.3351  0.3281 -0.0472
  324UNK    H02 2910   1.619   4.299   3.306  0.2301  0.2745 -0.0609
  324UNK    C03 2911   1.590   4.247   3.099  0.1439  0.1787  0.2031
  324UNK    C04 2912   1.600   4.103   3.124  0.2403 -0.0929 -1.5563
  324UNK    F05 2913   1.669   4.075   3.236  0.6966  0.1371 -0.0352
  324UNK    F06 2914   1.482   4.036   3.135 -0.1732 -0.4940  0.1486
  324UNK    F07 2915   1.665   4.048   3.017  0.6562  0.2146 -0.0706
  324UNK    H08 2916   1.633   4.286   3.008 -1.7916 -0.7389 -1.1850
  325UNK    F00 2917   3.859   2.589   2.891 -0.2012 -0.0462  0.0018
  325UNK    C01 2918   3.838   2.664   2.997  0.4991 -0.7819  0.3264
  325UNK    H02 2919   3.733   2.693   3.000  0.1045 -1.9810 -0.7661
  325UNK    C03 2920   3.943   2.666   3.087  0.0338  0.1779 -0.3076
  325UNK    C04 2921   4.034   2.776   3.094  0.3269 -0.6307 -0.1930
  325UNK    F05 2922   4.155   2.737   3.124 -0.1502  0.1635  0.1510
  325UNK    F06 2923   4.049   2.824   2.966 -0.4606 -0.4994  0.5780
  325UNK    F07 2924   3.995   2.880   3.170 -0.2406  0.1869 -0.0893
  325UNK    H08 2925   3.974   2.571   3.127 -2.1870 -0.0879  0.9605
  326UNK    F00 2926   1.061   0.408   3.816 -0.5836 -0.0636 -0.5827
  326UNK    C01 2927   1.117   0.511   3.884 -0.1205  0.1903 -0.0297
  326UNK    H02 2928   1.163   0.583   3.816 -1.3832  1.0004 -0.0515
  326UNK    C03 2929   1.058   0.542   4.004 -0.1679 -1.0932  0.8348
  326UNK    C04 2930   1.120   0.485   4.123  0.3687 -0.6031 -0.5811
  326UNK    F05 2931   1.225   0.558   4.158  0.2315 -0.0272 -0.3502
  326UNK    F06 2932   1.030   0.488   4.233 -0.2441  0.1523  0.4781
  326UNK    F07 2933   1.156   0.358   4.110  0.0316  0.3759  0.5923
  326UNK    H08 2934   0.951   0.558   4.014 -0.1982 -1.2093  0.6928
  327UNK    F00 2935   4.576   3.504   0.630 -0.2348  0.9375  0.1626
  327UNK    C01 2936   4.566   3.421   0.736  0.1215 -0.0104  0.4921
  327UNK    H02 2937   4.607   3.482   0.816 -0.8043  0.7922  0.3716
  327UNK    C03 2938   4.581   3.287   0.716 -0.3381  0.1214  0.3878
  327UNK    C04 2939   4.707   3.212   0.719 -0.7417  0.6760  0.8418
  327UNK    F05 2940   4.814   3.291   0.730 -0.1904  0.7854 -0.0875
  327UNK    F06 2941   4.715   3.129   0.825  0.3398 -0.8689 -0.7748
  327UNK    F07 2942   4.716   3.131   0.607  0.0966 -0.2424 -0.4855
  327UNK    H08 2943   4.511   3.242   0.647 -0.7923  0.8594  0.3562
  328UNK    F00 2944   3.188   0.519   1.293  0.6899  0.1485  0.2374
  328UNK    C01 2945   3.157   0.494   1.422  0.6356 -0.1730  0.6730
  328UNK    H02 2946   3.071   0.427   1.436 -0.2667  0.7841 -0.0996
  328UNK    C03 2947   3.237   0.545   1.512 -0.6856 -0.3483 -0.2903
  328UNK    C04 2948   3.225   0.691   1.554  0.2912  0.4401 -0.4580
  328UNK    F05 2949   3.191   0.764   1.450 -0.0718 -0.2324  0.5005
  328UNK    F06 2950   3.109   0.699   1.618 -0.3913  0.2881 -0.4686
  328UNK    F07 2951   3.330   0.744   1.614 -0.4581  0.5046 -0.1447
  328UNK    H08 2952   3.335   0.500   1.524  0.0956  1.3415 -0.0753
  329UNK    F00 2953   0.144   3.169   0.147 -0.0228 -0.2603 -0.1446
  329UNK    C01 2954   0.050   3.133   0.057 -0.1662 -0.7105 -0.1193
  329UNK    H02 2955  -0.007   3.217   0.018 -0.3966 -0.7229  0.1924
  329UNK    C03 2956   0.040   3.005   0.024 -0.7716  0.2887  0.2963
  329UNK    C04 2957   0.027   2.966  -0.116  1.2053 -1.5268 -0.1125
  329UNK    F05 2958   0.004   2.835  -0.136 -0.9437 -0.9326  0.1575
  329UNK    F06 2959  -0.091   3.018  -0.160 -0.2830 -0.5230  0.2355
  329UNK    F07 2960   0.119   3.009  -0.201 -0.1236 -0.2366 -0.5916
  329UNK    H08 2961  -0.006   2.949   0.105  0.2280 -0.4375  0.3741
  330UNK    F00 2962   1.578   2.187   2.590 -0.0144  0.8485  0.5578
  330UNK    C01 2963   1.534   2.078   2.658 -0.0785  0.4655 -0.3953
  330UNK    H02 2964   1.460   2.114   2.729 -0.0464  0.6559 -0.4585
  330UNK    C03 2965   1.538   1.957   2.602  0.3781 -0.3048 -0.7654
  330UNK    C04 2966   1.428   1.859   2.608  0.0303 -0.1180  0.1983
  330UNK    F05 2967   1.390   1.819   2.732 -0.4445 -0.4016 -0.0260
  330UNK    F06 2968   1.313   1.880   2.548  0.5687 -0.1143  0.1930
  330UNK    F07 2969   1.474   1.744   2.550  0.4236  0.2317  0.1457
  330UNK    H08 2970   1.584   1.950   2.505 -0.5433  0.6120 -1.2955
  331UNK    F00 2971   4.393   0.460   0.968  0.2417  0.0434 -0.4071
  331UNK    C01 2972   4.274   0.419   0.917  0.0818  0.2589  0.7108
  331UNK    H02 2973   4.207   0.374   0.990 -2.1238 -0.4865 -1.6014
  331UNK    C03 2974   4.253   0.414   0.786  0.5188  0.6603  0.9061
  331UNK    C04 2975   4.123   0.454   0.724  0.4949  0.5223 -0.3331
  331UNK    F05 2976   4.020   0.407   0.804 -0.6560 -0.1897  0.0042
  331UNK    F06 2977   4.113   0.588   0.723  0.1524  0.2072 -0.6122
  331UNK    F07 2978   4.092   0.407   0.600 -0.1681 -0.0599 -0.7678
  331UNK    H08 2979   4.340   0.428   0.724  1.3677 -1.3291  1.5749
  332UNK    F00 2980   0.389   1.852   1.497  0.0480 -0.0293 -0.4247
  332UNK    C01 2981   0.308   1.899   1.590 -0.3072 -0.3955 -0.3873
  332UNK    H02 2982   0.243   1.820   1.627 -0.5380  0.4320  1.0132
  332UNK    C03 2983   0.275   2.027   1.599 -0.3526  0.1750 -0.5699
  332UNK    C04 2984   0.178   2.095   1.511  0.1217  0.3536 -0.0005
  332UNK    F05 2985   0.190   2.055   1.382  0.2702  0.5202 -0.1770
  332UNK    F06 2986   0.046   2.082   1.534 -0.2884  0.3887  0.2408
  332UNK    F07 2987   0.198   2.231   1.517 -0.2957  0.0603  0.3682
  332UNK    H08 2988   0.362   2.087   1.624  0.9478 -2.7371  2.6768
  333UNK    F00 2989   1.801   3.422   1.080 -0.5546 -0.4790 -0.3725
  333UNK    C01 2990   1.864   3.519   1.147  0.0163  0.5870 -0.1547
  333UNK    H02 2991   1.837   3.618   1.111 -0.1010  0.3108 -0.8508
  333UNK    C03 2992   1.954   3.489   1.236 -0.2343 -0.1767  0.3468
  333UNK    C04 2993   2.094   3.456   1.205 -0.1977 -0.7216  0.1119
  333UNK    F05 2994   2.137   3.335   1.251 -0.0830  0.0871 -0.3743
  333UNK    F06 2995   2.124   3.462   1.071 -0.1743 -0.2085 -0.2670
  333UNK    F07 2996   2.177   3.546   1.272  0.2146  0.1835 -0.2056
  333UNK    H08 2997   1.929   3.408   1.303  2.3085 -2.1046 -0.8349
  334UNK    F00 2998   4.500   1.973   1.436 -0.4483  0.1917 -0.0092
  334UNK    C01 2999   4.619   1.920   1.395  0.1976  0.0134 -0.4590
  334UNK    H02 3000   4.701   1.915   1.468 -0.0290  3.2798  0.1611
  334UNK    C03 3001   4.618   1.904   1.264 -0.1107 -0.2254 -0.4993
  334UNK    C04 3002   4.702   1.804   1.203  0.1371  0.8827  0.6878
  334UNK    F05 3003   4.672   1.682   1.238  0.3297  1.0029 -0.0377
  334UNK    F06 3004   4.681   1.804   1.068  0.2739 -0.2182 -0.1129
  334UNK    F07 3005   4.838   1.827   1.209 -0.3063  0.1901 -0.2600
  334UNK    H08 3006   4.538   1.944   1.203  1.6623  3.3647 -0.7706
  335UNK    F00 3007   4.006   4.363   2.768 -0.5374 -0.1055  0.3013
  335UNK    C01 3008   3.887   4.416   2.792  0.1121  0.1952 -0.5082
  335UNK    H02 3009   3.884   4.525   2.795  0.7509  0.2440 -1.2074
  335UNK    C03 3010   3.788   4.327   2.803 -0.2892 -0.5945 -0.4165
  335UNK    C04 3011   3.759   4.257   2.932  0.2636  0.3301 -0.0482
  335UNK    F05 3012   3.672   4.157   2.913  0.5568  0.4737 -0.0935
  335UNK    F06 3013   3.880   4.209   2.981  0.1897  0.3559  0.5856
  335UNK    F07 3014   3.711   4.346   3.019 -0.6718 -0.1958  0.1323
  335UNK    H08 3015   3.751   4.281   2.712  1.3367 -1.7531 -0.5227
  336UNK    F00 3016   1.117   3.798   2.449  0.0738  0.5302 -0.0642
  336UNK    C01 3017   0.998   3.764   2.499 -0.1190  0.0557 -0.2594
  336UNK    H02 3018   1.012   3.742   2.605  0.0187 -1.5971 -0.5877
  336UNK    C03 3019   0.891   3.783   2.427 -0.3503 -0.1087  0.0425
  336UNK    C04 3020   0.812   3.668   2.382 -0.4326  0.3015  0.1363
  336UNK    F05 3021   0.717   3.647   2.477  0.0807  0.0501  0.0913
  336UNK    F06 3022   0.758   3.697   2.265  0.2138 -0.1379  0.9725
  336UNK    F07 3023   0.886   3.552   2.363 -0.0630  0.4570  0.1449
  336UNK    H08 3024   0.857   3.875   2.381 -0.4798 -0.1843 -0.0166
  337UNK    F00 3025   2.969   2.762   0.641  0.1255  0.1612  0.0918
  337UNK    C01 3026   2.885   2.661   0.676 -0.2251 -0.4538 -0.3250
  337UNK    H02 3027   2.866   2.675   0.782  1.8429  2.0414 -0.1820
  337UNK    C03 3028   2.796   2.639   0.584  0.4276  0.3805  0.3536
  337UNK    C04 3029   2.742   2.751   0.510  0.4394  0.2849  0.3183
  337UNK    F05 3030   2.631   2.712   0.449 -0.1288 -0.1311  0.1328
  337UNK    F06 3031   2.711   2.862   0.589  0.1469 -0.6388 -0.1990
  337UNK    F07 3032   2.828   2.791   0.415 -0.3184 -0.2697  0.1075
  337UNK    H08 3033   2.797   2.543   0.534  0.2007  0.3161  0.4708
  338UNK    F00 3034   4.014   3.257   2.883 -0.2219 -0.2523 -0.1494
  338UNK    C01 3035   3.988   3.379   2.936  0.1874  0.1570  0.3862
  338UNK    H02 3036   4.058   3.417   3.011 -2.3331  1.6852  2.1197
  338UNK    C03 3037   3.882   3.448   2.896  0.0329  0.1290  0.1177
  338UNK    C04 3038   3.745   3.417   2.936 -0.0850  0.0633  0.6189
  338UNK    F05 3039   3.718   3.287   2.948 -0.0886 -0.5946 -0.4297
  338UNK    F06 3040   3.733   3.493   3.053 -0.3467 -0.1887 -0.5256
  338UNK    F07 3041   3.670   3.469   2.838 -0.5599  0.1223  0.1132
  338UNK    H08 3042   3.882   3.467   2.789 -0.7878  1.7851  0.3820
  339UNK    F00 3043   2.673   1.909   1.950  0.2585  0.0395  0.8293
  339UNK    C01 3044   2.621   1.838   1.851 -0.2405 -1.0855  0.3444
  339UNK    H02 3045   2.598   1.904   1.768  0.9428 -0.3645  0.5713
  339UNK    C03 3046   2.600   1.711   1.856 -0.3671  0.3030  0.2089
  339UNK    C04 3047   2.609   1.621   1.733 -0.3271 -0.5528 -0.2953
  339UNK    F05 3048   2.540   1.686   1.637 -0.4076  0.4938 -0.2087
  339UNK    F06 3049   2.736   1.594   1.691  0.0183 -0.4534  0.8970
  339UNK    F07 3050   2.547   1.510   1.773  0.0466 -0.5480 -0.7956
  339UNK    H08 3051   2.633   1.658   1.944  0.3751 -1.6458 -1.1709
  340UNK    F00 3052   1.556   2.855   1.305 -0.4718  0.3207 -0.0404
  340UNK    C01 3053   1.575   2.737   1.249  0.4660 -0.0632  0.7059
  340UNK    H02 3054   1.680   2.707   1.259  0.6148  0.7994  1.9018
  340UNK    C03 3055   1.473   2.689   1.182  0.7356 -0.0889 -0.7880
  340UNK    C04 3056   1.477   2.542   1.161  0.2660 -0.0521  0.0081
  340UNK    F05 3057   1.598   2.483   1.144  0.3844 -0.0482 -0.4322
  340UNK    F06 3058   1.447   2.483   1.280  0.0366  0.4072 -0.1977
  340UNK    F07 3059   1.395   2.508   1.060  0.0540  0.0584  0.1960
  340UNK    H08 3060   1.426   2.738   1.098 -0.3577  2.7038  1.2902
  341UNK    F00 3061   1.437   0.112   0.751  0.0782  0.8622  0.2936
  341UNK    C01 3062   1.526   0.205   0.726  0.1500 -0.2934 -0.4792
  341UNK    H02 3063   1.495   0.266   0.641 -0.3883 -1.8778 -1.4678
  341UNK    C03 3064   1.645   0.206   0.788 -0.0837 -0.3129 -0.9025
  341UNK    C04 3065   1.709   0.339   0.825  0.6189  0.2265 -0.6604
  341UNK    F05 3066   1.696   0.372   0.962 -0.0465 -0.0243 -0.1003
  341UNK    F06 3067   1.840   0.312   0.805 -0.0493 -0.0161 -0.0574
  341UNK    F07 3068   1.672   0.432   0.734 -0.2797  0.1441  0.0882
  341UNK    H08 3069   1.673   0.122   0.849 -0.5888  0.3043  0.2062
  342UNK    F00 3070   3.362   0.647   4.204  0.2104 -0.0684 -0.4258
  342UNK    C01 3071   3.439   0.746   4.162 -0.7298 -0.1834 -0.9483
  342UNK    H02 3072   3.545   0.723   4.159 -0.6016  0.4235 -1.3998
  342UNK    C03 3073   3.384   0.864   4.142  0.1593  0.3334 -0.3909
  342UNK    C04 3074   3.435   0.976   4.052  0.0474  0.2784 -0.6499
  342UNK    F05 3075   3.559   1.015   4.092  0.1211 -0.1076 -0.5586
  342UNK    F06 3076   3.440   0.929   3.924 -0.0228 -0.7382 -0.0370
  342UNK    F07 3077   3.356   1.086   4.035 -0.0752 -0.0736  0.1451
  342UNK    H08 3078   3.296   0.886   4.201 -0.3421  3.2789 -2.0600
  343UNK    F00 3079   2.314   4.289   4.395 -0.0454  0.0230  0.6648
  343UNK    C01 3080   2.322   4.310   4.522  0.2350 -0.2277 -0.1054
  343UNK    H02 3081   2.321   4.218   4.580  0.0990 -0.3540 -0.3102
  343UNK    C03 3082   2.360   4.429   4.569  0.4369 -0.0662  0.4386
  343UNK    C04 3083   2.468   4.507   4.506  0.2743  0.6736 -0.3864
  343UNK    F05 3084   2.519   4.600   4.589  0.0487 -0.1037 -0.4904
  343UNK    F06 3085   2.571   4.425   4.474 -0.6392 -0.6281 -0.0410
  343UNK    F07 3086   2.422   4.573   4.400  0.9481  0.1546  0.0958
  343UNK    H08 3087   2.278   4.486   4.611 -0.1859 -1.8424  1.7242
  344UNK    F00 3088   4.378   4.684   3.600  0.5130 -0.5849  0.3892
  344UNK    C01 3089   4.465   4.691   3.496  0.4422 -0.1923 -0.3128
  344UNK    H02 3090   4.530   4.605   3.481 -0.5231 -0.8765 -0.6860
  344UNK    C03 3091   4.482   4.791   3.409  0.2751 -0.6010 -0.0506
  344UNK    C04 3092   4.376   4.837   3.311  0.1070 -0.1096 -0.0523
  344UNK    F05 3093   4.281   4.745   3.294 -0.2513  0.6038  0.5966
  344UNK    F06 3094   4.327   4.956   3.330  0.5492 -0.4657  0.3173
  344UNK    F07 3095   4.439   4.845   3.197  0.4085  0.6460  0.5491
  344UNK    H08 3096   4.568   4.856   3.412 -0.5887  0.5783  0.0287
  345UNK    F00 3097   0.217   1.600   3.364  0.5145  0.0007 -0.6100
  345UNK    C01 3098   0.336   1.554   3.325 -0.1193 -0.2646  0.1986
  345UNK    H02 3099   0.363   1.613   3.237  2.3969 -0.5726  0.6702
  345UNK    C03 3100   0.409   1.489   3.419  0.3483  0.2529 -0.0463
  345UNK    C04 3101   0.378   1.352   3.453 -0.3701  0.6569  0.2692
  345UNK    F05 3102   0.424   1.319   3.576 -0.1780 -0.0829 -0.0426
  345UNK    F06 3103   0.242   1.333   3.450  0.3831  0.2919 -0.1630
  345UNK    F07 3104   0.425   1.259   3.361 -0.0548 -0.1216 -0.1611
  345UNK    H08 3105   0.413   1.539   3.515 -0.4853 -0.4239  0.3519
  346UNK    F00 3106   3.883   4.599   1.588  0.1943 -0.4356 -0.0436
  346UNK    C01 3107   3.820   4.613   1.468  0.4657  0.2262 -0.2656
  346UNK    H02 3108   3.718   4.577   1.483  0.7822  0.0471  1.7365
  346UNK    C03 3109   3.889   4.619   1.351  0.2577  0.4450  0.0668
  346UNK    C04 3110   3.955   4.500   1.292 -0.0223  0.1794  1.1594
  346UNK    F05 3111   4.070   4.535   1.228 -0.1855  0.3031  0.6307
  346UNK    F06 3112   3.976   4.404   1.384  0.0533 -0.1806 -0.3459
  346UNK    F07 3113   3.883   4.431   1.197 -0.1358 -0.3159 -0.0960
  346UNK    H08 3114   3.895   4.708   1.290 -1.2987  0.1454 -0.5958
  347UNK    F00 3115   1.196   2.058   1.551 -0.8288 -0.2756  0.1949
  347UNK    C01 3116   1.149   2.045   1.423 -0.0599 -0.6084  0.9519
  347UNK    H02 3117   1.099   1.948   1.418 -1.4395  0.1183 -0.4473
  347UNK    C03 3118   1.137   2.145   1.336  0.3807  0.4177  0.2456
  347UNK    C04 3119   1.023   2.167   1.236 -1.0495 -0.3993  0.0436
  347UNK    F05 3120   0.962   2.049   1.214 -0.6471  0.1867  0.6613
  347UNK    F06 3121   0.937   2.260   1.272 -0.5255 -0.1772 -0.5950
  347UNK    F07 3122   1.070   2.210   1.112 -0.0169  0.1202  0.2370
  347UNK    H08 3123   1.222   2.209   1.321  0.7596 -0.0936  0.1699
  348UNK    F00 3124   0.056   2.848   3.825  0.0918  0.5236 -0.2982
  348UNK    C01 3125   0.146   2.888   3.732 -0.2507 -0.2834  0.1426
  348UNK    H02 3126   0.136   2.992   3.701 -1.9759 -0.7216 -0.8993
  348UNK    C03 3127   0.196   2.786   3.669 -0.1539  0.4420 -0.2983
  348UNK    C04 3128   0.303   2.795   3.571  0.0663  0.0218 -0.5721
  348UNK    F05 3129   0.424   2.796   3.630 -0.2671  0.1820 -0.8734
  348UNK    F06 3130   0.306   2.698   3.475 -0.0333 -0.4166 -0.3396
  348UNK    F07 3131   0.286   2.909   3.495  0.1189  0.0994 -0.2249
  348UNK    H08 3132   0.174   2.687   3.707 -1.3977  0.4071 -1.0454
  349UNK    F00 3133   3.150   0.699   3.668  0.0703 -0.1217 -0.0291
  349UNK    C01 3134   3.229   0.662   3.764 -0.1799 -0.6224 -0.5994
  349UNK    H02 3135   3.333   0.668   3.732 -0.1437 -1.2791 -0.6166
  349UNK    C03 3136   3.184   0.631   3.883  0.2766 -0.1766 -0.9727
  349UNK    C04 3137   3.125   0.497   3.904 -0.6656 -0.0693 -0.1377
  349UNK    F05 3138   3.037   0.458   3.819 -0.0235  0.3356 -0.0732
  349UNK    F06 3139   3.226   0.401   3.911  0.0360 -0.2439  0.6003
  349UNK    F07 3140   3.056   0.495   4.014  0.3512  0.0186 -0.0699
  349UNK    H08 3141   3.169   0.696   3.967 -0.9292 -0.6241 -0.8344
  350UNK    F00 3142   0.099   1.378   4.036  0.0754 -0.3525 -0.5467
  350UNK    C01 3143   0.201   1.399   3.947  0.3307  0.0891 -0.1200
  350UNK    H02 3144   0.233   1.311   3.892  0.1932 -1.3186  1.9407
  350UNK    C03 3145   0.226   1.523   3.919 -0.5647 -0.0032  0.2310
  350UNK    C04 3146   0.302   1.562   3.798 -0.2136  0.1691 -0.3885
  350UNK    F05 3147   0.338   1.692   3.801 -0.2719  0.5457 -0.1786
  350UNK    F06 3148   0.414   1.489   3.800  0.0514 -0.0670 -0.2351
  350UNK    F07 3149   0.242   1.544   3.680 -0.8065  0.2778  0.2488
  350UNK    H08 3150   0.216   1.601   3.994  1.1987  1.8027 -1.2705
  351UNK    F00 3151   1.873   3.886   3.626 -0.0896 -0.2339 -0.2358
  351UNK    C01 3152   1.769   3.841   3.552 -0.3600 -0.0645 -0.5363
  351UNK    H02 3153   1.794   3.847   3.446  1.0739  1.2440 -0.1594
  351UNK    C03 3154   1.653   3.823   3.608  0.1588  0.3378  0.1865
  351UNK    C04 3155   1.628   3.766   3.744  0.2703 -0.2596 -0.2418
  351UNK    F05 3156   1.669   3.636   3.739  0.2590  0.3113  0.0316
  351UNK    F06 3157   1.683   3.841   3.845  0.9017  0.1657  0.2232
  351UNK    F07 3158   1.493   3.779   3.759  0.0921  0.2582 -0.0800
  351UNK    H08 3159   1.573   3.786   3.547 -1.1712  2.3348  0.6325
  352UNK    F00 3160   2.449   2.170   2.971  0.7146  0.1134  0.2147
  352UNK    C01 3161   2.492   2.218   2.857 -0.6826  0.6091 -0.2971
  352UNK    H02 3162   2.592   2.258   2.878  0.3999 -2.7174  1.8212
  352UNK    C03 3163   2.389   2.265   2.782 -0.6748 -0.5231  0.2207
  352UNK    C04 3164   2.403   2.290   2.635 -0.1569  0.7449 -0.3950
  352UNK    F05 3165   2.523   2.334   2.592 -0.1666  0.3404  0.3617
  352UNK    F06 3166   2.386   2.172   2.558 -0.0328 -0.2463 -0.1992
  352UNK    F07 3167   2.299   2.370   2.597  0.1620  0.3779 -0.9806
  352UNK    H08 3168   2.294   2.226   2.815  0.5905 -2.0076  2.4061
  353UNK    F00 3169   2.214   4.148   4.015 -0.0450 -0.0279 -0.3469
  353UNK    C01 3170   2.161   4.140   4.137  0.3845  0.5494  0.3580
  353UNK    H02 3171   2.085   4.217   4.153 -0.8425 -0.2752 -1.2393
  353UNK    C03 3172   2.210   4.049   4.225 -0.5156 -0.0182  0.0042
  353UNK    C04 3173   2.145   4.002   4.350 -0.6291 -0.2573 -0.0477
  353UNK    F05 3174   2.229   3.933   4.425 -0.4311 -0.5776  0.3194
  353UNK    F06 3175   2.104   4.107   4.422  0.1326  0.0421  0.5950
  353UNK    F07 3176   2.035   3.926   4.329 -0.5738 -0.3580  0.6599
  353UNK    H08 3177   2.305   4.004   4.201  0.1924  1.5015 -0.1640
  354UNK    F00 3178   0.694   0.642   3.947  0.2371 -0.0875  0.2959
  354UNK    C01 3179   0.568   0.626   3.987 -0.1457  0.6838 -0.2673
  354UNK    H02 3180   0.538   0.692   4.068  0.3467  0.9251 -0.2742
  354UNK    C03 3181   0.475   0.562   3.914  0.6032  0.0541 -0.2016
  354UNK    C04 3182   0.329   0.582   3.929 -0.1590 -0.0762  0.3372
  354UNK    F05 3183   0.281   0.698   3.882 -0.3402 -0.2181  0.0573
  354UNK    F06 3184   0.256   0.482   3.879 -0.2285 -0.2596  0.0290
  354UNK    F07 3185   0.312   0.573   4.061  0.0888  0.2329 -0.2789
  354UNK    H08 3186   0.508   0.494   3.837  3.3169 -1.1843  1.9009
  355UNK    F00 3187   1.625   2.794   2.320 -0.1327 -0.4783 -0.2519
  355UNK    C01 3188   1.757   2.777   2.298 -0.4628 -0.3078 -0.0782
  355UNK    H02 3189   1.803   2.717   2.377 -0.3536  0.4186  0.4145
  355UNK    C03 3190   1.804   2.785   2.173  0.3947 -0.2737 -0.4720
  355UNK    C04 3191   1.920   2.705   2.127 -0.4303  1.7336  0.0690
  355UNK    F05 3192   1.884   2.575   2.121  0.6125  0.2903 -0.2256
  355UNK    F06 3193   1.957   2.751   2.001 -0.1122  0.5111 -0.0166
  355UNK    F07 3194   2.040   2.714   2.196  0.2562  0.4271  0.4023
  355UNK    H08 3195   1.812   2.887   2.138  0.7700  0.1874  0.8886
  356UNK    F00 3196   1.781   4.573   2.610 -0.4250  0.2479  0.0977
  356UNK    C01 3197   1.774   4.461   2.542 -1.1958  0.7698 -0.1247
  356UNK    H02 3198   1.816   4.468   2.442 -0.0210  1.2272  0.3839
  356UNK    C03 3199   1.720   4.359   2.605  0.0358 -0.0300  0.3286
  356UNK    C04 3200   1.575   4.336   2.598  0.0427  0.2690 -0.1003
  356UNK    F05 3201   1.542   4.241   2.689  0.0661  0.0106 -0.1015
  356UNK    F06 3202   1.517   4.453   2.641 -0.7206  0.3166 -0.2302
  356UNK    F07 3203   1.514   4.299   2.482  0.7852  0.0988  0.6697
  356UNK    H08 3204   1.757   4.323   2.700 -1.6685  1.0431  1.4418
  357UNK    F00 3205   4.269   3.933   1.341  0.5738  0.6172 -0.0758
  357UNK    C01 3206   4.293   3.920   1.475  0.2666 -0.0083 -0.0843
  357UNK    H02 3207   4.355   3.832   1.494 -2.7448 -2.3106  0.0198
  357UNK    C03 3208   4.267   4.027   1.550 -0.1514  0.5578  0.1888
  357UNK    C04 3209   4.330   4.066   1.675  0.5123 -0.1258  0.0692
  357UNK    F05 3210   4.424   4.163   1.672  0.1324  0.2218 -0.2458
  357UNK    F06 3211   4.229   4.086   1.762  0.0880 -0.0604  0.3241
  357UNK    F07 3212   4.401   3.955   1.718  0.6607  0.4755 -0.4148
  357UNK    H08 3213   4.181   4.087   1.524 -0.3449  0.0862 -0.2574
  358UNK    F00 3214   0.743   3.051   3.306  0.3045  0.1624 -0.5729
  358UNK    C01 3215   0.836   3.142   3.348 -0.3750  0.2673  0.3478
  358UNK    H02 3216   0.796   3.243   3.344 -0.8950  0.0274 -1.0340
  358UNK    C03 3217   0.958   3.107   3.389 -0.4168  0.2617 -0.1365
  358UNK    C04 3218   1.073   3.035   3.320 -0.3296  0.3388 -0.7818
  358UNK    F05 3219   1.186   3.027   3.395 -0.1333  0.4826 -0.2251
  358UNK    F06 3220   1.030   2.908   3.296  0.3778 -0.1115 -0.5107
  358UNK    F07 3221   1.106   3.095   3.197  0.0419 -0.5816  0.0797
  358UNK    H08 3222   0.997   3.143   3.483  1.2552  1.5079 -1.2280
  359UNK    F00 3223   2.370   1.220   1.060  0.4850 -0.3153  0.1483
  359UNK    C01 3224   2.244   1.185   1.075  0.4644 -0.2817  0.2822
  359UNK    H02 3225   2.184   1.233   0.999  1.9863 -0.7675 -1.2839
  359UNK    C03 3226   2.211   1.107   1.174 -0.3127 -0.2117  0.0054
  359UNK    C04 3227   2.109   1.001   1.164 -0.3407  0.7026  0.3459
  359UNK    F05 3228   2.147   0.884   1.098 -0.6311  0.2946 -0.2353
  359UNK    F06 3229   2.056   0.968   1.285  0.1681 -0.0992 -0.0778
  359UNK    F07 3230   2.009   1.048   1.084  0.0348  0.6064  0.7275
  359UNK    H08 3231   2.264   1.102   1.268 -1.1967 -1.2953  0.4658
  360UNK    F00 3232   1.764   2.750   1.753 -0.3781 -0.1761  0.2452
  360UNK    C01 3233   1.660   2.745   1.673 -0.1829 -0.3952  0.3661
  360UNK    H02 3234   1.679   2.741   1.566  0.9355 -1.8867  0.5918
  360UNK    C03 3235   1.544   2.727   1.729  0.0325 -0.2680 -0.0524
  360UNK    C04 3236   1.529   2.660   1.855 -0.4411  0.3609 -0.0453
  360UNK    F05 3237   1.400   2.621   1.861  0.4911 -0.1321 -0.2434
  360UNK    F06 3238   1.613   2.551   1.855  0.0258 -0.1106 -0.3140
  360UNK    F07 3239   1.552   2.737   1.963  0.1721  0.0907  0.2386
  360UNK    H08 3240   1.467   2.690   1.663 -0.2259  0.8008 -0.3771
  361UNK    F00 3241   0.495   4.438   2.841  0.2725  0.7080 -0.2888
  361UNK    C01 3242   0.536   4.345   2.928 -0.8772 -0.1288  0.1004
  361UNK    H02 3243   0.622   4.387   2.980 -1.2004  2.2253 -1.1124
  361UNK    C03 3244   0.491   4.218   2.924  0.0073 -0.3450  0.0364
  361UNK    C04 3245   0.486   4.112   3.025  0.2690  0.2012  0.2363
  361UNK    F05 3246   0.439   3.997   2.978  0.2685  0.5668 -0.3156
  361UNK    F06 3247   0.609   4.091   3.072  0.1095 -0.0619  0.5024
  361UNK    F07 3248   0.399   4.160   3.118 -0.6219  0.8232 -0.1500
  361UNK    H08 3249   0.423   4.200   2.842  0.9797 -0.9596 -0.6533
  362UNK    F00 3250   1.554   3.492   3.492 -0.0057  0.0892 -0.1373
  362UNK    C01 3251   1.554   3.406   3.592  0.6368 -0.1096 -0.4683
  362UNK    H02 3252   1.656   3.373   3.611  1.1638  1.3920 -0.5436
  362UNK    C03 3253   1.465   3.420   3.695 -0.6196  0.2495  0.5383
  362UNK    C04 3254   1.331   3.357   3.702  0.1409 -0.2471  0.0236
  362UNK    F05 3255   1.273   3.342   3.583 -0.2840 -0.4068  0.2865
  362UNK    F06 3256   1.338   3.228   3.747 -0.3738 -0.6866 -0.1980
  362UNK    F07 3257   1.249   3.422   3.789 -0.2893  0.0264  0.1063
  362UNK    H08 3258   1.496   3.470   3.786  0.8653 -1.3539  0.9614
  363UNK    F00 3259   0.922   0.733   4.260 -0.4439  0.0404 -0.3214
  363UNK    C01 3260   0.909   0.858   4.300  0.3848 -0.0266 -0.6129
  363UNK    H02 3261   0.957   0.875   4.396 -2.2754  0.5277  0.7341
  363UNK    C03 3262   0.824   0.944   4.245 -0.0333 -0.4356 -0.2225
  363UNK    C04 3263   0.877   1.079   4.209  0.4158  0.2378  0.2308
  363UNK    F05 3264   0.785   1.167   4.158 -0.1199  0.5313 -0.0089
  363UNK    F06 3265   0.916   1.143   4.320 -0.1422  0.4333  0.2201
  363UNK    F07 3266   0.978   1.081   4.126  0.1865  0.5862 -0.6401
  363UNK    H08 3267   0.738   0.904   4.194 -0.8343  0.3043  0.5171
  364UNK    F00 3268   4.065   4.605   2.012 -0.4319  0.7816 -0.1743
  364UNK    C01 3269   4.152   4.545   1.925  0.5413 -0.0011  0.1256
  364UNK    H02 3270   4.223   4.487   1.984  0.1250 -0.2764  0.3617
  364UNK    C03 3271   4.165   4.596   1.800  0.0183  0.3805  0.2477
  364UNK    C04 3272   4.251   4.527   1.702 -0.3079 -0.3078  0.0432
  364UNK    F05 3273   4.368   4.494   1.756  0.6295 -0.6783  0.1648
  364UNK    F06 3274   4.183   4.415   1.684  0.0610 -0.0534 -0.4507
  364UNK    F07 3275   4.259   4.581   1.576 -0.1252  0.5688  0.2029
  364UNK    H08 3276   4.117   4.684   1.760 -0.3794 -0.2489 -0.6771
  365UNK    F00 3277   4.404   3.166   1.566 -0.1805  0.1650 -0.4412
  365UNK    C01 3278   4.457   3.290   1.549 -0.2341  0.4247  0.0413
  365UNK    H02 3279   4.565   3.291   1.568  0.0431 -1.3223 -1.1963
  365UNK    C03 3280   4.374   3.389   1.572 -0.1168  0.1216  0.0861
  365UNK    C04 3281   4.405   3.529   1.544 -0.0679  0.5680 -0.8536
  365UNK    F05 3282   4.362   3.563   1.420  0.0650  0.0213 -0.2047
  365UNK    F06 3283   4.346   3.613   1.636 -0.1923  0.0065 -0.3342
  365UNK    F07 3284   4.537   3.557   1.531 -0.8263 -0.1687 -0.7364
  365UNK    H08 3285   4.290   3.372   1.637 -0.5942 -0.8468 -0.7598
  366UNK    F00 3286   3.764   3.501   1.914 -0.5021  0.2115  0.1881
  366UNK    C01 3287   3.879   3.517   1.848  0.7704  1.2109 -0.1870
  366UNK    H02 3288   3.851   3.511   1.743 -2.1016  1.8036  0.4462
  366UNK    C03 3289   3.969   3.597   1.896  0.2590 -0.3997  0.2626
  366UNK    C04 3290   4.077   3.648   1.818 -0.0641 -0.3867 -0.4589
  366UNK    F05 3291   4.176   3.685   1.902 -0.1396 -0.3224 -0.3644
  366UNK    F06 3292   4.130   3.542   1.741 -0.3044 -0.2036 -0.0920
  366UNK    F07 3293   4.044   3.746   1.727  0.0636 -0.1664  0.0732
  366UNK    H08 3294   3.993   3.597   2.001  2.1230  4.9232  0.1210
  367UNK    F00 3295   1.295   4.518   1.322 -0.3780 -0.5461 -0.3095
  367UNK    C01 3296   1.397   4.436   1.286  0.0484 -0.2968 -0.6596
  367UNK    H02 3297   1.399   4.438   1.177 -1.2442 -0.0948 -0.6939
  367UNK    C03 3298   1.498   4.415   1.374  0.5483 -0.2145  0.6464
  367UNK    C04 3299   1.617   4.341   1.341  0.4082 -0.7427  0.6632
  367UNK    F05 3300   1.719   4.432   1.319 -0.4307  0.3358 -0.5169
  367UNK    F06 3301   1.651   4.266   1.447 -0.1090 -0.1035 -0.3826
  367UNK    F07 3302   1.605   4.270   1.225  0.0704 -0.7585 -0.4609
  367UNK    H08 3303   1.482   4.436   1.479 -0.2958 -1.1017  0.7137
  368UNK    F00 3304   0.904   3.446   1.240  0.3679  0.0573  0.4306
  368UNK    C01 3305   0.849   3.324   1.259 -0.1177  0.5100  0.6031
  368UNK    H02 3306   0.928   3.256   1.293  1.4297  2.1124  0.3239
  368UNK    C03 3307   0.721   3.322   1.297  0.2584  0.8068  0.6580
  368UNK    C04 3308   0.608   3.304   1.206 -0.5744 -0.3335 -0.5066
  368UNK    F05 3309   0.582   3.170   1.196 -0.4522 -0.2315 -0.1864
  368UNK    F06 3310   0.499   3.367   1.260  0.2086  0.8902 -0.8913
  368UNK    F07 3311   0.638   3.361   1.088 -0.1594  0.2357  0.6259
  368UNK    H08 3312   0.690   3.300   1.398 -0.0720 -2.7403 -0.1104
  369UNK    F00 3313   0.172   1.377   0.059 -0.0953  0.0643  0.1138
  369UNK    C01 3314   0.101   1.358   0.171  0.2394  0.4457  0.1758
  369UNK    H02 3315  -0.004   1.385   0.167  0.3904  0.9307 -0.5159
  369UNK    C03 3316   0.156   1.298   0.280 -0.0051 -0.6694  0.6525
  369UNK    C04 3317   0.090   1.222   0.381  0.6477 -0.3917  0.5055
  369UNK    F05 3318  -0.043   1.244   0.371 -0.3238 -0.4971 -0.3068
  369UNK    F06 3319   0.112   1.089   0.347  0.4220 -0.1014  0.1600
  369UNK    F07 3320   0.119   1.255   0.508 -0.4129  0.1749  0.0787
  369UNK    H08 3321   0.263   1.286   0.283  0.1686  0.4221 -0.2907
  370UNK    F00 3322   2.180   4.611   3.378  0.3560 -0.0016 -0.3751
  370UNK    C01 3323   2.305   4.655   3.413  0.7200 -0.0534  0.0485
  370UNK    H02 3324   2.345   4.574   3.473 -2.3379 -1.2645  0.6170
  370UNK    C03 3325   2.345   4.782   3.395  0.3667  0.1118 -0.3706
  370UNK    C04 3326   2.482   4.822   3.407  0.1200  0.2705  0.3997
  370UNK    F05 3327   2.530   4.800   3.528 -0.3771  0.7896 -0.0259
  370UNK    F06 3328   2.561   4.762   3.320 -0.6073  0.0293 -0.2369
  370UNK    F07 3329   2.502   4.956   3.386  0.3095  0.2265 -0.2033
  370UNK    H08 3330   2.283   4.857   3.442 -0.7230 -0.1350 -1.3720
  371UNK    F00 3331   3.812   0.621   3.429  0.2175  0.4066  0.2038
  371UNK    C01 3332   3.751   0.507   3.386  0.1688  0.4513  0.2007
  371UNK    H02 3333   3.646   0.529   3.364 -0.5884 -1.4470  1.6731
  371UNK    C03 3334   3.809   0.389   3.387  0.0533 -0.2250 -0.6616
  371UNK    C04 3335   3.948   0.373   3.348 -0.0668  0.4155  0.3614
  371UNK    F05 3336   3.977   0.414   3.226 -0.1621  0.4873 -0.5154
  371UNK    F06 3337   4.039   0.429   3.427 -0.0318 -0.1542 -0.0012
  371UNK    F07 3338   3.977   0.241   3.353 -0.0631 -0.1483 -0.3606
  371UNK    H08 3339   3.768   0.305   3.440 -3.8552  1.7772 -0.1731
  372UNK    F00 3340   3.530   3.208   2.606  0.4257 -0.2104 -0.1813
  372UNK    C01 3341   3.599   3.139   2.698 -0.0040  0.4015  0.1891
  372UNK    H02 3342   3.625   3.191   2.790  1.3984 -0.1835  0.1620
  372UNK    C03 3343   3.657   3.029   2.643  0.1587 -0.1828  0.5592
  372UNK    C04 3344   3.731   2.918   2.710  0.3057 -0.1094  0.3323
  372UNK    F05 3345   3.792   2.832   2.623  0.2150 -0.2702 -0.4597
  372UNK    F06 3346   3.830   2.960   2.791  0.3436  0.3978 -0.0898
  372UNK    F07 3347   3.651   2.849   2.789 -0.0736  0.0838 -0.1110
  372UNK    H08 3348   3.656   3.014   2.536  0.9423 -1.8059  0.7403
  373UNK    F00 3349   0.429   2.643   2.125  0.6650 -0.5639 -0.3310
  373UNK    C01 3350   0.357   2.752   2.156 -0.0082  0.5542 -0.1020
  373UNK    H02 3351   0.375   2.841   2.095  0.1424  2.1316  2.1277
  373UNK    C03 3352   0.284   2.754   2.263  0.2436 -0.8724 -0.6349
  373UNK    C04 3353   0.176   2.848   2.285  0.3814  0.4187 -0.3450
  373UNK    F05 3354   0.066   2.814   2.215  0.0800  0.4132 -0.0420
  373UNK    F06 3355   0.116   2.838   2.409  0.3447  0.0743 -0.5772
  373UNK    F07 3356   0.208   2.980   2.256  0.5150  0.5986  0.2826
  373UNK    H08 3357   0.283   2.663   2.323 -0.1381 -0.8639 -0.6257
  374UNK    F00 3358   4.587   3.637   0.240  0.3246 -0.6299 -0.1651
  374UNK    C01 3359   4.615   3.691   0.122 -0.1098  0.0437  0.2862
  374UNK    H02 3360   4.588   3.797   0.127  1.4730  0.4883  0.0266
  374UNK    C03 3361   4.712   3.645   0.048  0.2876  0.6299  0.0437
  374UNK    C04 3362   4.836   3.584   0.105 -0.3496 -0.0743  0.6403
  374UNK    F05 3363   4.945   3.600   0.027 -0.1304 -0.4059  0.5799
  374UNK    F06 3364   4.863   3.619   0.229  0.1965 -0.2874 -0.5595
  374UNK    F07 3365   4.810   3.458   0.117 -0.3010 -0.0424 -0.2070
  374UNK    H08 3366   4.676   3.591  -0.038  1.3742 -1.6269  0.9226
  375UNK    F00 3367   1.093   0.828   0.329  0.5354 -0.1284  0.1767
  375UNK    C01 3368   1.181   0.852   0.226  0.7689  0.6548 -0.5982
  375UNK    H02 3369   1.264   0.781   0.229 -0.0308 -0.3003 -0.4150
  375UNK    C03 3370   1.181   0.965   0.161 -0.0252 -0.0787  0.1254
  375UNK    C04 3371   1.243   0.998   0.023 -0.4758 -0.1896 -0.3356
  375UNK    F05 3372   1.183   0.938  -0.082  0.1387 -0.0951  0.3459
  375UNK    F06 3373   1.250   1.131   0.005  0.2656  0.6501  0.6503
  375UNK    F07 3374   1.367   0.945   0.003 -0.4249  0.0456 -0.3170
  375UNK    H08 3375   1.107   1.038   0.188 -1.0029 -1.7755  2.3655
  376UNK    F00 3376   4.192   2.772   1.044 -0.0728  0.2965  0.7277
  376UNK    C01 3377   4.164   2.880   1.119 -0.6380  0.1204 -0.0041
  376UNK    H02 3378   4.130   2.966   1.063 -1.4285  0.0483  0.3501
  376UNK    C03 3379   4.131   2.851   1.242  0.3588 -0.3892  0.0416
  376UNK    C04 3380   4.037   2.937   1.317 -0.7924 -0.2352  0.1735
  376UNK    F05 3381   4.081   2.958   1.441  0.0114  0.2557  0.0877
  376UNK    F06 3382   4.027   3.062   1.258  0.2527  0.1760  0.2711
  376UNK    F07 3383   3.927   2.860   1.324  0.2276 -0.0825  0.2954
  376UNK    H08 3384   4.173   2.766   1.293 -0.2696  0.1043  1.4319
  377UNK    F00 3385   4.596   1.503   0.358  0.4649  0.8904  0.0076
  377UNK    C01 3386   4.618   1.618   0.423 -0.2971 -0.4205  0.1271
  377UNK    H02 3387   4.557   1.694   0.374 -0.9132 -0.1105  1.3315
  377UNK    C03 3388   4.737   1.635   0.472 -0.9579  0.1830  0.7156
  377UNK    C04 3389   4.763   1.683   0.611  0.6789  0.0182  0.8402
  377UNK    F05 3390   4.663   1.757   0.659 -0.5019  0.2718  0.4446
  377UNK    F06 3391   4.790   1.596   0.714  0.2591 -0.1598  0.1793
  377UNK    F07 3392   4.860   1.770   0.619  0.2548  0.0295  0.2496
  377UNK    H08 3393   4.823   1.630   0.406 -0.8029  1.2461  0.8267
  378UNK    F00 3394   0.047   3.541   3.584  0.3675 -0.5658 -0.0741
  378UNK    C01 3395   0.045   3.479   3.702  0.5099  0.1349  0.3891
  378UNK    H02 3396   0.049   3.545   3.788 -1.2028  0.5913  0.1368
  378UNK    C03 3397   0.004   3.356   3.693  0.7618 -0.1657  0.1287
  378UNK    C04 3398  -0.051   3.287   3.813 -0.4093 -0.1073 -0.0677
  378UNK    F05 3399  -0.178   3.328   3.833  0.0439  0.0501 -0.1637
  378UNK    F06 3400  -0.061   3.154   3.801 -0.3715  0.4564  0.6764
  378UNK    F07 3401   0.011   3.314   3.933  0.8138 -0.1448  0.4657
  378UNK    H08 3402   0.040   3.296   3.611  1.0069 -0.3321  0.3578
  379UNK    F00 3403   0.201   0.114   1.175  0.2979  0.3044 -0.3209
  379UNK    C01 3404   0.154   0.029   1.078 -0.3165 -0.9722  0.5439
  379UNK    H02 3405   0.052  -0.001   1.100  0.2593 -1.6390  2.5764
  379UNK    C03 3406   0.222   0.033   0.966  0.5276 -0.1537  0.5548
  379UNK    C04 3407   0.175  -0.009   0.834  0.7364  0.2312  0.4994
  379UNK    F05 3408   0.162  -0.141   0.835  0.6942 -0.1171 -0.2305
  379UNK    F06 3409   0.052   0.040   0.802 -0.2380 -0.1996 -0.2272
  379UNK    F07 3410   0.258   0.021   0.728  0.5601  0.2643 -0.2495
  379UNK    H08 3411   0.309   0.097   0.965  0.5172 -0.0595  2.3095
  380UNK    F00 3412   0.127   0.934   1.298 -0.1093  0.1250  0.2554
  380UNK    C01 3413   0.256   0.902   1.300  0.2771  1.1018 -0.4984
  380UNK    H02 3414   0.292   0.877   1.400 -0.6255 -0.6298 -0.5718
  380UNK    C03 3415   0.328   0.949   1.205  0.3326 -1.4476  0.7112
  380UNK    C04 3416   0.465   0.903   1.175 -0.2282 -0.2408 -0.1918
  380UNK    F05 3417   0.498   0.796   1.099 -0.1053  0.0706  0.1494
  380UNK    F06 3418   0.528   0.993   1.099 -0.5620 -0.0518 -0.1938
  380UNK    F07 3419   0.548   0.914   1.279 -0.4028 -0.1776  0.8737
  380UNK    H08 3420   0.302   1.045   1.163 -0.2594 -2.2023 -0.7035
  381UNK    F00 3421   1.403   4.185   3.480 -0.2575  0.1723  0.5368
  381UNK    C01 3422   1.459   4.148   3.598 -0.1498 -0.5695 -0.1546
  381UNK    H02 3423   1.519   4.058   3.589  1.0172  0.3084 -1.6224
  381UNK    C03 3424   1.457   4.249   3.692  0.1889 -0.3426 -0.4074
  381UNK    C04 3425   1.472   4.398   3.671  0.2876  0.6008 -0.0555
  381UNK    F05 3426   1.598   4.414   3.639 -0.2544  0.3084 -0.0109
  381UNK    F06 3427   1.395   4.444   3.567  0.5978 -0.4182 -0.2937
  381UNK    F07 3428   1.448   4.481   3.778  0.1041 -0.0262 -0.0408
  381UNK    H08 3429   1.391   4.236   3.777  0.1017  0.6734 -0.3117
  382UNK    F00 3430   4.067   4.119   3.722 -0.0614  0.1738 -0.2849
  382UNK    C01 3431   4.169   4.035   3.742  0.7087 -0.2344 -0.1237
  382UNK    H02 3432   4.213   3.993   3.651  0.1820  0.1397 -0.5563
  382UNK    C03 3433   4.173   3.980   3.862 -0.0499 -0.1520 -0.0246
  382UNK    C04 3434   4.297   3.919   3.918 -0.1675 -0.6926 -0.1502
  382UNK    F05 3435   4.263   3.841   4.021 -0.4827 -0.1727 -0.1693
  382UNK    F06 3436   4.354   3.836   3.826  0.2727  0.0407 -0.3874
  382UNK    F07 3437   4.382   4.011   3.965  0.1485 -0.3031  0.5985
  382UNK    H08 3438   4.088   3.948   3.920  1.6741 -1.3526  1.9759
  383UNK    F00 3439   0.575   3.347   3.126  0.3706  0.2551 -0.1785
  383UNK    C01 3440   0.572   3.247   3.040 -0.4989 -0.3498  0.2775
  383UNK    H02 3441   0.545   3.280   2.940  1.7372  1.2660  0.1444
  383UNK    C03 3442   0.588   3.123   3.083 -0.0452  0.2317 -0.2513
  383UNK    C04 3443   0.667   3.024   3.011  0.3442  0.3808  0.1877
  383UNK    F05 3444   0.646   3.070   2.882 -0.2699 -0.3836 -0.3894
  383UNK    F06 3445   0.795   3.023   3.035 -0.1377 -0.0778 -0.1055
  383UNK    F07 3446   0.617   2.897   3.009  0.0178  0.0140 -0.0181
  383UNK    H08 3447   0.552   3.090   3.179  1.1155 -0.2053  0.0535
  384UNK    F00 3448   1.480   0.263   3.098 -0.1617 -0.1605  0.3276
  384UNK    C01 3449   1.577   0.181   3.138 -0.2792 -0.5211 -0.4137
  384UNK    H02 3450   1.667   0.234   3.167 -0.0988  0.1167 -2.0302
  384UNK    C03 3451   1.561   0.053   3.125 -0.4171 -0.6442 -0.1466
  384UNK    C04 3452   1.619  -0.025   3.019  0.8794  0.9917  0.9535
  384UNK    F05 3453   1.743  -0.061   3.055  0.2305  0.2042  0.3085
  384UNK    F06 3454   1.545  -0.135   3.002  0.0092  0.0754  0.2761
  384UNK    F07 3455   1.636   0.031   2.894  0.0459 -0.3833 -0.3145
  384UNK    H08 3456   1.581  -0.003   3.216 -0.1898 -0.6857 -0.2199
  385UNK    F00 3457   1.897   0.625   0.901  0.5700 -0.7483  0.0653
  385UNK    C01 3458   1.913   0.685   1.019 -0.0146 -0.1227 -0.3412
  385UNK    H02 3459   1.908   0.793   1.009  0.4660  0.0607  1.1764
  385UNK    C03 3460   1.909   0.602   1.129 -0.7383 -0.5404  0.2795
  385UNK    C04 3461   1.847   0.622   1.260 -0.0332 -0.5196  0.4456
  385UNK    F05 3462   1.862   0.742   1.319  0.0494  0.2645  0.2588
  385UNK    F06 3463   1.715   0.599   1.248  0.8826 -0.0518  0.2012
  385UNK    F07 3464   1.892   0.526   1.347 -0.3601  0.2629 -0.1818
  385UNK    H08 3465   1.990   0.531   1.135 -0.3056 -0.3186 -1.9293
  386UNK    F00 3466   1.201   3.338   2.844 -0.2556  0.1437 -0.1490
  386UNK    C01 3467   1.303   3.359   2.930  0.0785  0.3576 -0.2106
  386UNK    H02 3468   1.379   3.424   2.887  0.7830 -0.7860 -0.7462
  386UNK    C03 3469   1.315   3.277   3.034 -0.0509 -0.3469 -0.2892
  386UNK    C04 3470   1.365   3.314   3.168  0.1731 -0.4873  0.2637
  386UNK    F05 3471   1.263   3.364   3.246  0.3259 -0.3384  0.1848
  386UNK    F06 3472   1.431   3.221   3.238  0.0411 -0.1644  0.4947
  386UNK    F07 3473   1.447   3.423   3.155 -0.2887  0.8489  0.0675
  386UNK    H08 3474   1.260   3.185   3.048 -1.0897  0.4695  1.2679
  387UNK    F00 3475   4.517   0.517   4.794  0.2287  0.1432 -0.6786
  387UNK    C01 3476   4.446   0.457   4.695  0.2950  0.2694 -0.6144
  387UNK    H02 3477   4.378   0.532   4.655 -1.1754 -0.4566  0.4496
  387UNK    C03 3478   4.448   0.325   4.668  0.7543 -0.2393 -0.3510
  387UNK    C04 3479   4.421   0.273   4.536 -0.1406  0.2968 -0.3918
  387UNK    F05 3480   4.419   0.141   4.549  0.5150 -0.2304 -0.3500
  387UNK    F06 3481   4.304   0.312   4.472 -0.1436  0.6036 -0.0327
  387UNK    F07 3482   4.517   0.299   4.444  0.3280 -0.3277  0.3107
  387UNK    H08 3483   4.482   0.254   4.743 -0.2799 -0.9574 -0.5303
  388UNK    F00 3484   2.851   2.915   0.053 -0.2568 -0.0301 -0.1223
  388UNK    C01 3485   2.766   2.809   0.056 -0.4644  1.0083  0.5326
  388UNK    H02 3486   2.666   2.848   0.042  0.0139  2.6395  1.3710
  388UNK    C03 3487   2.800   2.693   0.111 -0.5666  0.7213 -0.1458
  388UNK    C04 3488   2.740   2.563   0.073 -0.0247  0.4088  0.0410
  388UNK    F05 3489   2.743   2.481   0.180 -0.1825  0.7762 -0.0644
  388UNK    F06 3490   2.613   2.576   0.032 -0.0504  0.5127  0.1041
  388UNK    F07 3491   2.803   2.489  -0.029 -0.0143  0.2291 -0.1942
  388UNK    H08 3492   2.865   2.687   0.197 -0.2550  0.2465 -0.4116
  389UNK    F00 3493   2.025   4.767   2.069  0.5118  0.5121  0.7438
  389UNK    C01 3494   1.896   4.738   2.045  0.2373 -0.3346 -0.1390
  389UNK    H02 3495   1.874   4.730   1.939 -0.1084  1.8569 -0.2644
  389UNK    C03 3496   1.818   4.721   2.148  0.0923  0.1349  0.8021
  389UNK    C04 3497   1.702   4.623   2.146  0.8472 -0.1846  0.7154
  389UNK    F05 3498   1.589   4.697   2.151  0.2587  0.0682 -0.3145
  389UNK    F06 3499   1.711   4.539   2.036 -0.3123 -0.7076  0.2615
  389UNK    F07 3500   1.692   4.553   2.261  0.1188  0.1055 -0.1770
  389UNK    H08 3501   1.809   4.804   2.218  0.3471  1.6066 -0.8497
  390UNK    F00 3502   4.460   3.286   4.171 -0.3943  0.4802 -0.2065
  390UNK    C01 3503   4.576   3.245   4.128 -0.5698 -0.3690  0.1739
  390UNK    H02 3504   4.555   3.221   4.024 -2.1541 -2.4368  0.8909
  390UNK    C03 3505   4.673   3.196   4.210  0.5298  0.0346 -0.6209
  390UNK    C04 3506   4.735   3.277   4.320  0.3875 -0.3438 -0.1889
  390UNK    F05 3507   4.839   3.207   4.366  0.0567 -0.0225 -0.4791
  390UNK    F06 3508   4.786   3.397   4.278 -0.4870  0.1746  0.3197
  390UNK    F07 3509   4.645   3.291   4.423 -0.3329  0.1402 -0.3926
  390UNK    H08 3510   4.695   3.091   4.215  1.0331  0.1873  0.9991
  391UNK    F00 3511   4.803   1.438   4.694  0.4231 -0.2005  0.1825
  391UNK    C01 3512   4.875   1.411   4.580 -0.0640  0.5223  0.2314
  391UNK    H02 3513   4.903   1.508   4.538  0.7393  0.7124  1.1604
  391UNK    C03 3514   4.859   1.297   4.518 -0.0549  0.0817 -0.9338
  391UNK    C04 3515   4.740   1.269   4.439 -0.1630 -0.4241 -0.1898
  391UNK    F05 3516   4.750   1.294   4.305 -0.3856 -0.0461 -0.2443
  391UNK    F06 3517   4.683   1.147   4.460 -0.6580  0.0423  0.6229
  391UNK    F07 3518   4.637   1.351   4.477  0.0715 -0.1125 -0.3146
  391UNK    H08 3519   4.949   1.242   4.494  0.2916  0.0633  0.3468
  392UNK    F00 3520   3.185   4.521   0.893  0.3187  0.2135  0.3530
  392UNK    C01 3521   3.190   4.409   0.971  0.5637  0.2568  0.5881
  392UNK    H02 3522   3.282   4.354   0.955  0.8055  0.9761 -0.6597
  392UNK    C03 3523   3.070   4.357   1.007 -0.3223 -0.2643  0.1626
  392UNK    C04 3524   3.047   4.261   1.119  0.2063  0.3711 -0.7089
  392UNK    F05 3525   2.998   4.329   1.223 -0.0891  0.1736  0.0510
  392UNK    F06 3526   2.956   4.170   1.084 -0.2225  0.3183 -0.0239
  392UNK    F07 3527   3.163   4.197   1.139  0.1388 -0.2851  0.3038
  392UNK    H08 3528   2.979   4.407   0.978  0.2522  0.4135 -0.5037
  393UNK    F00 3529   3.986   1.330   3.144 -0.1628  0.0743  0.0432
  393UNK    C01 3530   3.863   1.334   3.201 -0.4390  0.2423 -0.4429
  393UNK    H02 3531   3.796   1.294   3.125 -0.6636 -1.3998  0.5827
  393UNK    C03 3532   3.841   1.402   3.311  0.3539  0.4551  0.4060
  393UNK    C04 3533   3.922   1.409   3.433  0.5157 -0.3921 -0.2051
  393UNK    F05 3534   4.015   1.500   3.408  0.1144  0.3820 -0.1086
  393UNK    F06 3535   3.840   1.458   3.522  0.7259  0.6488 -0.0751
  393UNK    F07 3536   3.986   1.293   3.468  0.5084 -0.6959 -0.3915
  393UNK    H08 3537   3.749   1.455   3.327 -0.7538 -0.4169 -2.3837
  394UNK    F00 3538   0.944   1.232   0.235  0.4336 -0.0272 -0.0869
  394UNK    C01 3539   1.025   1.323   0.288  0.7395 -0.2889 -0.0424
  394UNK    H02 3540   0.988   1.351   0.387 -0.1286  2.0877 -0.9724
  394UNK    C03 3541   1.144   1.342   0.235  0.3107 -0.3821  0.3299
  394UNK    C04 3542   1.254   1.415   0.304 -0.2610 -0.6688 -0.1315
  394UNK    F05 3543   1.331   1.496   0.235 -0.0536 -0.4544  0.3487
  394UNK    F06 3544   1.203   1.492   0.405  0.1768  0.6689 -0.2805
  394UNK    F07 3545   1.341   1.323   0.353  0.2459  0.4945 -0.1049
  394UNK    H08 3546   1.172   1.316   0.134  1.1443 -1.4661  0.8146
  395UNK    F00 3547   3.300   3.047   2.565 -0.0452  0.3228  0.3251
  395UNK    C01 3548   3.207   2.984   2.488  0.7100  0.3491 -1.0311
  395UNK    H02 3549   3.222   2.876   2.501 -1.2509  0.2920  1.9013
  395UNK    C03 3550   3.098   3.050   2.443 -0.5680 -0.0586  0.2060
  395UNK    C04 3551   3.117   3.122   2.317  0.6193  0.4643  0.0579
  395UNK    F05 3552   3.104   3.040   2.210 -0.2535  0.1723  0.5940
  395UNK    F06 3553   3.008   3.208   2.303  0.5141  0.3221  0.5055
  395UNK    F07 3554   3.232   3.195   2.319 -0.4551 -0.0789  0.4838
  395UNK    H08 3555   2.999   3.013   2.463  0.2368 -0.8596  3.2124
  396UNK    F00 3556   0.991   3.271   3.678  0.0016 -0.7990  0.5753
  396UNK    C01 3557   0.922   3.320   3.780  0.3159 -0.2498 -0.2858
  396UNK    H02 3558   0.814   3.326   3.765  0.3038  2.9284  0.3580
  396UNK    C03 3559   0.992   3.328   3.891 -0.8288  0.6866  0.3689
  396UNK    C04 3560   0.925   3.357   4.017 -0.0053 -0.2209  0.2090
  396UNK    F05 3561   1.004   3.364   4.125  0.1834  0.1660  0.0713
  396UNK    F06 3562   0.853   3.471   4.007 -0.2437 -0.1241  0.3961
  396UNK    F07 3563   0.832   3.264   4.051  0.6501  0.4351  0.1341
  396UNK    H08 3564   1.092   3.287   3.903 -1.1166  0.2130  1.2694
  397UNK    F00 3565   0.532   3.665   1.387  0.3126  0.1841 -0.1645
  397UNK    C01 3566   0.406   3.625   1.398 -0.0005 -0.3312 -0.6906
  397UNK    H02 3567   0.404   3.542   1.469 -1.6195  0.7542  0.5824
  397UNK    C03 3568   0.329   3.629   1.287  0.1570  0.1202  0.3756
  397UNK    C04 3569   0.185   3.629   1.268 -0.0938 -0.4660  0.1675
  397UNK    F05 3570   0.151   3.623   1.137  0.1825 -0.0092  0.2694
  397UNK    F06 3571   0.131   3.523   1.324 -0.2977 -0.2501  0.1269
  397UNK    F07 3572   0.129   3.740   1.325  0.2275  0.6712  0.3237
  397UNK    H08 3573   0.385   3.629   1.195 -1.0308  0.0467 -0.3751
  398UNK    F00 3574   1.697   0.058   4.378 -0.2346  0.6460 -0.0337
  398UNK    C01 3575   1.641   0.144   4.457  0.7283  0.5596 -0.0541
  398UNK    H02 3576   1.677   0.135   4.560 -0.1546  0.0184  0.2168
  398UNK    C03 3577   1.624   0.261   4.404  0.1121 -0.5547 -0.1454
  398UNK    C04 3578   1.529   0.306   4.302  0.1027  0.2112  0.8125
  398UNK    F05 3579   1.536   0.431   4.297  0.2266 -0.1208 -0.1711
  398UNK    F06 3580   1.571   0.257   4.186 -1.1770 -0.3584  0.1091
  398UNK    F07 3581   1.399   0.265   4.321 -0.3105  0.4766 -0.6482
  398UNK    H08 3582   1.717   0.314   4.392  0.3691 -1.0174 -0.2015
  399UNK    F00 3583   2.332   4.197   1.433  0.0709 -0.2365 -0.2259
  399UNK    C01 3584   2.402   4.160   1.328  1.3041 -0.7433  0.0325
  399UNK    H02 3585   2.344   4.157   1.235  2.1053 -1.9502 -0.4479
  399UNK    C03 3586   2.515   4.102   1.342 -0.1877 -0.6879 -0.3500
  399UNK    C04 3587   2.616   4.098   1.239  0.1900 -0.4228 -1.0506
  399UNK    F05 3588   2.562   4.075   1.115 -0.1284  0.4596  0.4176
  399UNK    F06 3589   2.662   4.223   1.221 -0.4209 -0.2130 -0.7118
  399UNK    F07 3590   2.713   4.008   1.256  0.0825 -0.9029 -0.3301
  399UNK    H08 3591   2.540   4.062   1.439  2.3882  0.0751 -0.6052
  400UNK    F00 3592   0.674   2.889   1.272 -0.7673 -0.3935  0.2938
  400UNK    C01 3593   0.574   2.828   1.207 -0.1208  0.3335  0.4747
  400UNK    H02 3594   0.531   2.877   1.119 -1.3869  0.4962  1.1617
  400UNK    C03 3595   0.559   2.698   1.231  0.1518 -1.3239  0.3152
  400UNK    C04 3596   0.531   2.651   1.367 -0.3818  0.0813  0.1318
  400UNK    F05 3597   0.576   2.525   1.375  0.0051 -0.0178 -0.7921
  400UNK    F06 3598   0.579   2.725   1.466 -0.3915 -0.1699 -0.4512
  400UNK    F07 3599   0.396   2.650   1.391  0.3672  0.1917 -0.4137
  400UNK    H08 3600   0.540   2.617   1.161 -0.2200 -0.1585 -0.9705
  401UNK    F00 3601   0.211   1.566   1.918 -0.3627 -0.1131  0.0128
  401UNK    C01 3602   0.087   1.585   1.869 -1.0705 -0.9441  0.0669
  401UNK    H02 3603   0.038   1.647   1.945  0.8197  0.1388  0.4640
  401UNK    C03 3604   0.061   1.579   1.736  0.1252 -0.5873 -0.1614
  401UNK    C04 3605  -0.030   1.669   1.666 -0.1521 -0.6615  0.0573
  401UNK    F05 3606  -0.104   1.599   1.576  0.6381 -0.3274  0.0311
  401UNK    F06 3607  -0.126   1.731   1.730  0.2434 -0.1360  0.1709
  401UNK    F07 3608   0.037   1.761   1.589  0.4989 -0.1567 -0.0891
  401UNK    H08 3609   0.092   1.494   1.678  2.1145 -0.0275  0.0188
  402UNK    F00 3610   3.319   1.231   2.627  0.0076  0.0719  0.0189
  402UNK    C01 3611   3.287   1.123   2.553 -0.0346  0.0410 -0.1642
  402UNK    H02 3612   3.273   1.037   2.619 -0.9255 -1.3484 -2.0608
  402UNK    C03 3613   3.250   1.134   2.428 -0.6482  0.0902  0.0797
  402UNK    C04 3614   3.134   1.063   2.373  0.7670  0.5372 -0.2103
  402UNK    F05 3615   3.116   0.937   2.411 -0.0224  0.4533  0.1139
  402UNK    F06 3616   3.014   1.123   2.400 -0.1319 -0.3093  0.0598
  402UNK    F07 3617   3.151   1.041   2.241 -0.1776  0.4865 -0.3319
  402UNK    H08 3618   3.327   1.151   2.354 -0.0450  0.2812  0.7422
  403UNK    F00 3619   2.816   4.241   0.759  0.2474 -0.0768  0.6360
  403UNK    C01 3620   2.785   4.371   0.765 -0.0988  0.1781  0.4700
  403UNK    H02 3621   2.832   4.433   0.689 -0.4442 -0.5024 -0.3046
  403UNK    C03 3622   2.704   4.416   0.864 -0.1281 -0.6167  0.1479
  403UNK    C04 3623   2.589   4.503   0.838 -0.3784 -0.3957  0.0100
  403UNK    F05 3624   2.506   4.504   0.944  0.5204  0.4248  0.1221
  403UNK    F06 3625   2.628   4.626   0.807 -0.1095 -0.1370  0.1371
  403UNK    F07 3626   2.519   4.466   0.731 -0.1274  0.3770  0.0213
  403UNK    H08 3627   2.697   4.357   0.954  1.5429 -0.0604  0.6797
  404UNK    F00 3628   2.933   1.456   1.589 -0.2209  0.2263 -0.1569
  404UNK    C01 3629   2.920   1.523   1.473 -0.0623 -0.5622 -0.5052
  404UNK    H02 3630   2.962   1.621   1.497 -0.6886 -0.1017 -1.2466
  404UNK    C03 3631   2.825   1.497   1.383 -0.0556 -0.2586 -0.2750
  404UNK    C04 3632   2.844   1.572   1.255  0.1082 -0.1159 -0.1599
  404UNK    F05 3633   2.860   1.705   1.278  0.1723 -0.0416  0.4926
  404UNK    F06 3634   2.958   1.534   1.198  0.1839  0.0316  0.6960
  404UNK    F07 3635   2.743   1.559   1.167 -0.4882  0.8303  0.2534
  404UNK    H08 3636   2.803   1.393   1.364  0.2070 -0.3426 -0.1209
  405UNK    F00 3637   3.709   2.109   3.449  0.4376  0.6154  0.3805
  405UNK    C01 3638   3.758   1.986   3.457  0.2310 -0.4053 -0.0352
  405UNK    H02 3639   3.791   1.951   3.359 -1.1336  3.4744 -2.1002
  405UNK    C03 3640   3.781   1.928   3.575 -0.4312  0.1871 -0.3413
  405UNK    C04 3641   3.875   1.815   3.594 -0.2734  0.0060  0.6672
  405UNK    F05 3642   3.842   1.707   3.518 -0.4214  0.6897 -0.1381
  405UNK    F06 3643   4.006   1.840   3.553 -0.0434  0.1904 -0.1350
  405UNK    F07 3644   3.885   1.782   3.724 -0.2669 -0.1277 -0.1075
  405UNK    H08 3645   3.692   1.897   3.629 -0.3218 -0.7008 -0.6553
  406UNK    F00 3646   0.619   0.260   3.424 -0.4024 -0.6375 -0.5197
  406UNK    C01 3647   0.647   0.217   3.548 -1.1459  0.3673  0.5319
  406UNK    H02 3648   0.644   0.110   3.566 -1.6498  0.3724  0.4835
  406UNK    C03 3649   0.714   0.300   3.633  0.3203  0.3921 -0.6484
  406UNK    C04 3650   0.783   0.233   3.740 -0.3215 -0.7592  0.7321
  406UNK    F05 3651   0.812   0.342   3.813 -0.2772 -0.3118  0.6928
  406UNK    F06 3652   0.723   0.145   3.825 -0.5961  0.0143 -0.5507
  406UNK    F07 3653   0.893   0.163   3.695 -0.0490  0.4187 -0.2095
  406UNK    H08 3654   0.757   0.391   3.596 -0.4421  1.3526  0.7235
  407UNK    F00 3655   1.483   4.232   1.777  0.0316  0.7095  0.2023
  407UNK    C01 3656   1.538   4.138   1.852 -0.0102  0.4118 -0.1483
  407UNK    H02 3657   1.479   4.131   1.943  0.4809 -1.0328  0.0944
  407UNK    C03 3658   1.599   4.036   1.795 -0.5628 -0.2010 -0.4853
  407UNK    C04 3659   1.590   3.895   1.844 -0.5318 -0.4344  0.4742
  407UNK    F05 3660   1.565   3.889   1.977  0.1929  0.2014 -0.6071
  407UNK    F06 3661   1.481   3.832   1.784  0.0661 -0.5325 -0.1741
  407UNK    F07 3662   1.700   3.815   1.813  0.1344  0.0706  0.0858
  407UNK    H08 3663   1.677   4.052   1.722  1.6756 -0.0250  1.8295
  408UNK    F00 3664   4.325   4.487   2.435  0.4381 -0.0479 -0.3184
  408UNK    C01 3665   4.200   4.534   2.439 -0.1938 -0.5622 -0.4565
  408UNK    H02 3666   4.193   4.638   2.474  0.3938  0.0345 -2.0384
  408UNK    C03 3667   4.109   4.439   2.470  1.0531 -0.2823  0.1367
  408UNK    C04 3668   3.978   4.439   2.412  0.1259 -0.2394  0.4183
  408UNK    F05 3669   3.915   4.327   2.448  0.3950  0.2682  0.1010
  408UNK    F06 3670   3.898   4.537   2.449  0.0148 -0.4427  0.3882
  408UNK    F07 3671   3.986   4.426   2.277 -0.1445  0.0755  0.2342
  408UNK    H08 3672   4.123   4.387   2.564 -0.3187 -1.0476 -0.0595
  409UNK    F00 3673   2.138   3.177   0.200 -0.0770  0.4105 -0.0701
  409UNK    C01 3674   2.149   3.139   0.071 -0.3115 -0.3082 -0.3197
  409UNK    H02 3675   2.252   3.153   0.038 -0.7551  2.2145 -0.8039
  409UNK    C03 3676   2.085   3.031   0.035 -0.2137  0.4990 -0.2018
  409UNK    C04 3677   2.081   2.979  -0.103 -0.6229  0.3601  0.1622
  409UNK    F05 3678   2.025   3.070  -0.182 -0.2405 -0.4691 -0.1727
  409UNK    F06 3679   2.198   2.933  -0.153  0.2522  0.2468 -0.3154
  409UNK    F07 3680   1.995   2.872  -0.094 -0.4291 -0.1478  0.0887
  409UNK    H08 3681   2.049   2.965   0.112 -2.8379  1.3323 -0.6167
  410UNK    F00 3682   2.980   0.610   2.413 -0.1330 -0.3395 -0.2811
  410UNK    C01 3683   2.880   0.647   2.340  0.1467  0.3101 -0.1705
  410UNK    H02 3684   2.864   0.580   2.255  0.4448  1.0973 -0.8679
  410UNK    C03 3685   2.854   0.772   2.338 -0.2274  0.0331  0.1903
  410UNK    C04 3686   2.742   0.832   2.270  0.0823 -0.0014  0.7057
  410UNK    F05 3687   2.728   0.780   2.149  0.5904 -0.4335  0.4240
  410UNK    F06 3688   2.622   0.812   2.323 -0.5621 -0.1490 -0.3269
  410UNK    F07 3689   2.759   0.967   2.261  0.3871 -0.2772  0.2394
  410UNK    H08 3690   2.929   0.848   2.355 -0.5352  0.4393 -0.2379
  411UNK    F00 3691   1.142   1.545   3.307 -0.0096 -0.2717 -0.5470
  411UNK    C01 3692   1.151   1.647   3.396 -0.2251  0.0808 -0.0805
  411UNK    H02 3693   1.257   1.663   3.413 -0.2853 -1.1757  1.7847
  411UNK    C03 3694   1.049   1.695   3.463  0.4814 -0.0269 -0.4469
  411UNK    C04 3695   0.921   1.722   3.398 -0.1054 -0.4133  0.0890
  411UNK    F05 3696   0.846   1.803   3.478  0.3153  0.2967  0.2725
  411UNK    F06 3697   0.934   1.771   3.271 -0.0938  0.2349  0.1297
  411UNK    F07 3698   0.841   1.616   3.376  0.0890  0.0228  0.8604
  411UNK    H08 3699   1.019   1.634   3.548  2.1228 -0.7693 -0.3461
  412UNK    F00 3700   2.843   4.363   0.426  0.4315  0.6121 -0.6080
  412UNK    C01 3701   2.868   4.398   0.298 -0.1231  0.4204 -0.5852
  412UNK    H02 3702   2.920   4.319   0.243  0.0206  0.6201 -0.7346
  412UNK    C03 3703   2.842   4.522   0.266  0.3015  0.1172  0.1484
  412UNK    C04 3704   2.948   4.623   0.254  0.2220  0.2615  0.3157
  412UNK    F05 3705   3.032   4.593   0.153 -0.4426 -0.4057  0.2595
  412UNK    F06 3706   2.896   4.742   0.223 -0.0539 -0.5369  0.1021
  412UNK    F07 3707   3.015   4.644   0.368  0.3636 -0.4704 -0.0250
  412UNK    H08 3708   2.746   4.539   0.221 -0.6475 -1.7361  1.3408
  413UNK    F00 3709   2.819   0.128   3.076  0.3876  0.1907 -0.6451
  413UNK    C01 3710   2.794  -0.006   3.085 -0.2556 -0.2788  0.1231
  413UNK    H02 3711   2.798  -0.047   3.186  1.7190  0.8882  0.5618
  413UNK    C03 3712   2.780  -0.073   2.971 -0.2383 -0.2845 -0.1259
  413UNK    C04 3713   2.721  -0.212   2.970 -0.5992 -0.3294  0.2461
  413UNK    F05 3714   2.588  -0.217   2.974  0.4161  0.0016 -0.1995
  413UNK    F06 3715   2.747  -0.266   2.853  0.0123 -0.1178 -0.2045
  413UNK    F07 3716   2.769  -0.289   3.070 -0.1879  0.0094 -0.1134
  413UNK    H08 3717   2.839  -0.061   2.882 -0.3210 -3.8647 -0.8143
  414UNK    F00 3718   4.680   3.521   2.758  0.0371 -0.0314  0.5614
  414UNK    C01 3719   4.648   3.520   2.632 -0.3279 -0.0382  0.5383
  414UNK    H02 3720   4.541   3.504   2.622 -0.2773 -0.5600  0.7730
  414UNK    C03 3721   4.728   3.550   2.527  0.4574  0.2683 -0.9236
  414UNK    C04 3722   4.792   3.681   2.527 -0.7124 -0.4528  0.1715
  414UNK    F05 3723   4.717   3.793   2.527 -0.1161 -0.0686 -0.5875
  414UNK    F06 3724   4.890   3.686   2.621  0.1097  0.2367  0.0794
  414UNK    F07 3725   4.863   3.697   2.410  0.6272  0.1528 -0.2401
  414UNK    H08 3726   4.700   3.515   2.429 -1.1857  0.1636 -0.4477
  415UNK    F00 3727   2.566   2.372   4.407  0.2852 -0.3141  0.2356
  415UNK    C01 3728   2.561   2.508   4.397  0.5036 -0.2418  0.2750
  415UNK    H02 3729   2.568   2.546   4.295  0.1838  1.2549  0.7805
  415UNK    C03 3730   2.570   2.587   4.505  0.2392  0.0139  0.5658
  415UNK    C04 3731   2.539   2.730   4.498  0.0984 -0.4661  0.1500
  415UNK    F05 3732   2.554   2.780   4.371 -0.1628 -0.0983 -0.8530
  415UNK    F06 3733   2.415   2.757   4.540  0.4485 -0.0528 -0.1270
  415UNK    F07 3734   2.622   2.797   4.580  0.2618  0.2390 -0.0056
  415UNK    H08 3735   2.593   2.554   4.606 -0.4133  0.5018  0.8869
  416UNK    F00 3736   1.715   4.338   3.872 -0.1936  0.0574 -0.3629
  416UNK    C01 3737   1.746   4.452   3.934 -0.8132  0.0510 -0.5508
  416UNK    H02 3738   1.777   4.530   3.864 -1.6585  0.5784 -0.3483
  416UNK    C03 3739   1.715   4.461   4.060  0.3725 -0.3805 -0.6262
  416UNK    C04 3740   1.678   4.591   4.120  0.4626 -0.4485 -1.0971
  416UNK    F05 3741   1.706   4.590   4.257 -0.0105  0.3185  0.1702
  416UNK    F06 3742   1.748   4.693   4.074 -0.1480  0.2570 -0.0365
  416UNK    F07 3743   1.550   4.618   4.089 -0.0158 -0.0466  0.0115
  416UNK    H08 3744   1.737   4.380   4.128 -0.6746 -0.9949 -0.9942
  417UNK    F00 3745   3.562   2.562   2.883  0.0213  0.0849  0.0279
  417UNK    C01 3746   3.451   2.493   2.924  0.7060 -1.1359  0.0952
  417UNK    H02 3747   3.412   2.529   3.019 -0.8024 -1.4330 -0.3830
  417UNK    C03 3748   3.371   2.406   2.845 -0.3314 -0.8249 -0.3354
  417UNK    C04 3749   3.410   2.264   2.840 -0.1630 -0.1151 -0.8232
  417UNK    F05 3750   3.415   2.205   2.962  0.1153  0.2893  0.3164
  417UNK    F06 3751   3.309   2.203   2.771  0.2129  0.2044 -0.0229
  417UNK    F07 3752   3.527   2.245   2.771  0.1658  0.4989 -0.1172
  417UNK    H08 3753   3.265   2.424   2.836  0.0639  2.1270 -0.3313
  418UNK    F00 3754   3.509   2.144   4.556  0.2393 -0.0787 -0.4013
  418UNK    C01 3755   3.458   2.136   4.431  0.2820 -0.4346  0.4806
  418UNK    H02 3756   3.372   2.069   4.422 -1.6439  1.5128  3.0302
  418UNK    C03 3757   3.520   2.199   4.332 -0.1948 -0.1828 -0.2558
  418UNK    C04 3758   3.602   2.119   4.245  0.4575  0.2978 -0.0721
  418UNK    F05 3759   3.530   2.018   4.196 -0.1087 -0.0805  0.0473
  418UNK    F06 3760   3.648   2.205   4.149 -0.2354 -0.0107 -0.3053
  418UNK    F07 3761   3.707   2.058   4.299 -0.2305  0.1751 -0.5002
  418UNK    H08 3762   3.555   2.300   4.350  1.2146 -0.9658  1.6576
  419UNK    F00 3763   1.248   3.995   3.755  0.4350 -0.8055 -0.0431
  419UNK    C01 3764   1.147   3.931   3.818 -0.0593 -0.3445 -0.0749
  419UNK    H02 3765   1.152   3.829   3.780 -0.2968 -0.5916  0.5267
  419UNK    C03 3766   1.070   3.991   3.906 -0.0175 -0.8549  0.5761
  419UNK    C04 3767   0.997   3.919   4.010 -0.8119 -0.2015 -0.3543
  419UNK    F05 3768   0.921   3.817   3.959  0.2828 -0.2571 -0.0886
  419UNK    F06 3769   1.081   3.853   4.097  0.0322 -0.3935  0.7527
  419UNK    F07 3770   0.917   3.998   4.085 -0.0640 -0.9726  0.2942
  419UNK    H08 3771   1.067   4.098   3.924  0.6251 -0.7334  0.0220
  420UNK    F00 3772   2.200   4.763   2.474  0.3623 -0.1846  0.6128
  420UNK    C01 3773   2.302   4.852   2.480  0.2246  0.1331  0.0079
  420UNK    H02 3774   2.392   4.808   2.435  0.6574  0.9978  0.0156
  420UNK    C03 3775   2.286   4.978   2.517 -0.0971 -0.1746 -0.1989
  420UNK    C04 3776   2.404   5.065   2.526 -0.8580 -0.2667 -0.0855
  420UNK    F05 3777   2.515   5.000   2.574 -0.0637 -0.3916  0.3758
  420UNK    F06 3778   2.442   5.124   2.404  0.4057 -0.2888 -0.1903
  420UNK    F07 3779   2.376   5.166   2.617  0.5077  0.3084  0.1225
  420UNK    H08 3780   2.201   5.006   2.578  0.7309  0.2180  0.8077
  421UNK    F00 3781   4.049   2.401   2.736  0.2568  0.3955 -0.0693
  421UNK    C01 3782   3.985   2.306   2.658 -0.3555 -0.5100  0.4740
  421UNK    H02 3783   3.881   2.297   2.691 -1.0043  1.5403 -0.8383
  421UNK    C03 3784   4.045   2.271   2.541 -0.3411 -0.1170  0.6567
  421UNK    C04 3785   3.992   2.211   2.419 -0.4161  0.0294 -0.4599
  421UNK    F05 3786   3.907   2.106   2.444  0.0919  0.2816  0.1967
  421UNK    F06 3787   3.914   2.294   2.349  0.1314  0.4048  0.5055
  421UNK    F07 3788   4.096   2.188   2.332 -0.3799  0.1541  0.4823
  421UNK    H08 3789   4.147   2.302   2.522 -0.2400 -0.8302  0.0050
  422UNK    F00 3790   2.931   3.052   3.574  0.0008  0.2148  0.1654
  422UNK    C01 3791   3.017   3.083   3.476 -0.4692 -0.1663 -0.8917
  422UNK    H02 3792   3.101   3.146   3.507 -0.1137  0.7676 -3.5114
  422UNK    C03 3793   3.034   2.987   3.383  0.1679  0.7102  0.4371
  422UNK    C04 3794   3.163   2.980   3.314 -0.5877 -0.2639 -0.3449
  422UNK    F05 3795   3.222   3.101   3.301  0.0048 -0.3534 -0.2801
  422UNK    F06 3796   3.254   2.919   3.397  0.2622 -0.0580  0.2109
  422UNK    F07 3797   3.170   2.914   3.194 -0.3625  0.0730 -0.4533
  422UNK    H08 3798   2.982   2.893   3.381 -0.8078  1.2468 -0.9925
  423UNK    F00 3799   2.446   2.558   2.212 -0.0422 -0.2093 -0.2832
  423UNK    C01 3800   2.412   2.600   2.336 -0.1004 -0.4111 -0.1169
  423UNK    H02 3801   2.448   2.534   2.415 -0.4620 -0.0216  0.3744
  423UNK    C03 3802   2.368   2.736   2.344 -0.7994  0.5386 -0.4134
  423UNK    C04 3803   2.383   2.811   2.471  0.3245  0.4238 -0.2216
  423UNK    F05 3804   2.391   2.735   2.582 -0.3532  0.5000 -0.3196
  423UNK    F06 3805   2.487   2.890   2.483 -0.2389  0.1472  0.8247
  423UNK    F07 3806   2.280   2.897   2.498 -0.1653 -0.4616  0.0755
  423UNK    H08 3807   2.303   2.775   2.267 -0.1974  0.9340 -0.7325
  424UNK    F00 3808   2.655   0.382   4.700  0.1964  0.2887  0.2701
  424UNK    C01 3809   2.601   0.446   4.809 -0.0048 -0.7298  0.2529
  424UNK    H02 3810   2.555   0.539   4.777  1.8876  0.5146  0.9818
  424UNK    C03 3811   2.628   0.432   4.938  0.3086  0.9570 -0.3249
  424UNK    C04 3812   2.589   0.307   5.012 -0.4803  0.7634  0.4384
  424UNK    F05 3813   2.548   0.343   5.132 -0.2423  0.0756 -0.0841
  424UNK    F06 3814   2.481   0.232   4.960  0.2383 -0.6683  0.2458
  424UNK    F07 3815   2.699   0.228   5.036  0.5446 -0.2416 -0.0201
  424UNK    H08 3816   2.679   0.510   4.992 -0.4814  0.0539  1.7998
  425UNK    F00 3817   2.547   4.515   1.337 -0.1113  0.0525 -0.7304
  425UNK    C01 3818   2.674   4.539   1.309  0.4206  0.5383  1.0965
  425UNK    H02 3819   2.735   4.449   1.307  1.0290  0.9471  0.8035
  425UNK    C03 3820   2.725   4.655   1.274 -0.1779 -0.1903 -0.0202
  425UNK    C04 3821   2.822   4.676   1.168 -0.2202  0.4542  1.0218
  425UNK    F05 3822   2.909   4.578   1.147  0.0394 -0.5223 -0.5462
  425UNK    F06 3823   2.769   4.704   1.043 -0.1424 -0.5575  0.1122
  425UNK    F07 3824   2.894   4.790   1.189  0.1074 -0.1935 -0.2077
  425UNK    H08 3825   2.738   4.728   1.353 -0.4139 -0.0723 -0.0878
  426UNK    F00 3826   1.182   4.165   2.447  0.1718  0.8199 -0.0815
  426UNK    C01 3827   1.054   4.200   2.446  0.0937  0.2600  0.4705
  426UNK    H02 3828   1.016   4.190   2.344 -0.0830 -1.4035  0.6709
  426UNK    C03 3829   0.984   4.182   2.559 -0.0978 -0.5075 -0.4920
  426UNK    C04 3830   0.835   4.160   2.561 -0.1809  0.9458 -0.4529
  426UNK    F05 3831   0.801   4.050   2.633 -0.3817  0.2653  0.0939
  426UNK    F06 3832   0.791   4.269   2.627  0.4031 -0.0724  0.3518
  426UNK    F07 3833   0.767   4.150   2.440  0.0696 -0.7481  0.1849
  426UNK    H08 3834   1.026   4.165   2.657 -2.9589 -0.6376  0.8064
  427UNK    F00 3835   0.039   2.389   4.793  0.1198 -0.5229 -0.1823
  427UNK    C01 3836   0.073   2.448   4.676  0.4226 -0.2860  0.6919
  427UNK    H02 3837   0.088   2.556   4.675  1.4890 -0.2856 -3.9795
  427UNK    C03 3838   0.135   2.371   4.590 -0.5344  0.5017  0.0238
  427UNK    C04 3839   0.060   2.286   4.491 -0.8256 -0.4741  0.9045
  427UNK    F05 3840  -0.034   2.359   4.422 -0.0265  0.2727  0.0656
  427UNK    F06 3841   0.133   2.229   4.396  0.2489 -0.2155 -0.3107
  427UNK    F07 3842  -0.022   2.192   4.537 -0.2374  0.6433  0.0003
  427UNK    H08 3843   0.236   2.399   4.564 -0.7509 -0.2016 -1.7077
  428UNK    F00 3844   4.261   4.152   3.021 -0.1191  0.1515 -0.0957
  428UNK    C01 3845   4.342   4.045   3.020 -0.4683 -0.2739  0.4038
  428UNK    H02 3846   4.409   4.035   2.935 -3.1296  3.1249 -2.4115
  428UNK    C03 3847   4.319   3.955   3.118  0.2938  0.9740 -0.7471
  428UNK    C04 3848   4.253   3.825   3.088 -0.3861 -0.0629  0.3068
  428UNK    F05 3849   4.218   3.741   3.187 -0.2964  0.3049  0.6203
  428UNK    F06 3850   4.154   3.842   2.994  0.0059  0.0792  0.1293
  428UNK    F07 3851   4.335   3.749   3.015  0.0304 -0.3660  0.3958
  428UNK    H08 3852   4.273   3.976   3.213 -0.2097 -0.6936 -0.5953
  429UNK    F00 3853   4.589   0.096   0.518  0.6677  0.0708 -0.2543
  429UNK    C01 3854   4.623   0.224   0.505  0.4780 -0.4244 -0.1326
  429UNK    H02 3855   4.547   0.275   0.447  1.5197  0.6023 -0.6373
  429UNK    C03 3856   4.714   0.277   0.587  0.9146 -0.5299 -0.0255
  429UNK    C04 3857   4.852   0.290   0.539  0.1517 -0.8312  0.1884
  429UNK    F05 3858   4.882   0.176   0.472 -0.1332 -0.0648  0.1953
  429UNK    F06 3859   4.890   0.402   0.470  0.0488 -0.1216 -0.6435
  429UNK    F07 3860   4.943   0.293   0.647  0.4808  0.6070  0.2585
  429UNK    H08 3861   4.711   0.244   0.690  0.7087 -0.9256 -0.1552
  430UNK    F00 3862   3.007   1.764   3.100  0.0751  0.2561 -0.7767
  430UNK    C01 3863   2.958   1.693   3.197  1.0873 -0.2457 -0.0861
  430UNK    H02 3864   3.013   1.707   3.290  1.1725 -0.4528 -0.1034
  430UNK    C03 3865   2.881   1.585   3.170 -0.0249 -0.5008  0.3186
  430UNK    C04 3866   2.943   1.458   3.134 -0.2614 -0.5182  0.2746
  430UNK    F05 3867   2.985   1.398   3.248  0.3677  0.0603 -0.3467
  430UNK    F06 3868   2.853   1.383   3.066 -0.3876  0.5958  0.0932
  430UNK    F07 3869   3.052   1.480   3.051  0.2680  0.1473 -0.1614
  430UNK    H08 3870   2.773   1.595   3.167  0.1776  2.5445 -1.3500
  431UNK    F00 3871   1.388   3.805   4.035 -0.1813 -0.4754 -0.1248
  431UNK    C01 3872   1.472   3.822   4.140 -0.1564  0.1154 -0.1695
  431UNK    H02 3873   1.560   3.761   4.117 -0.6345 -0.1144 -1.4569
  431UNK    C03 3874   1.459   3.908   4.241 -0.1153  0.0146 -0.1516
  431UNK    C04 3875   1.584   3.938   4.319  0.0063 -0.0385  0.6826
  431UNK    F05 3876   1.546   3.987   4.445  0.2547  0.1677  0.2572
  431UNK    F06 3877   1.656   3.827   4.336  0.2645  0.2877  0.0243
  431UNK    F07 3878   1.666   4.020   4.243 -0.4159  0.2493  0.1868
  431UNK    H08 3879   1.401   3.997   4.219  0.4707  0.6369  0.7498
  432UNK    F00 3880   3.523   1.541   1.794 -0.3281  0.0677  0.1717
  432UNK    C01 3881   3.442   1.565   1.691 -0.2202  0.4171 -0.1185
  432UNK    H02 3882   3.419   1.672   1.687 -3.2822 -0.1995 -2.5803
  432UNK    C03 3883   3.438   1.481   1.587 -0.5466 -0.3196  0.4231
  432UNK    C04 3884   3.376   1.511   1.461 -0.6264 -0.2106  0.3208
  432UNK    F05 3885   3.249   1.541   1.479  0.3661 -0.2595 -0.3798
  432UNK    F06 3886   3.439   1.624   1.413  0.1752  0.0610  0.3067
  432UNK    F07 3887   3.382   1.411   1.370  0.8045  0.2587  0.2248
  432UNK    H08 3888   3.465   1.378   1.603 -0.4790 -0.1959  1.1262
  433UNK    F00 3889   1.457   4.670   0.015  0.0447 -0.3443  0.2291
  433UNK    C01 3890   1.354   4.615   0.084  0.2616 -0.4936  0.7031
  433UNK    H02 3891   1.311   4.677   0.162 -2.1277 -1.4862  0.2636
  433UNK    C03 3892   1.305   4.497   0.057 -0.0015  0.1412 -0.0951
  433UNK    C04 3893   1.163   4.469   0.069  0.5052  0.4305 -0.1919
  433UNK    F05 3894   1.113   4.523   0.184 -0.2262  0.1140  0.1252
  433UNK    F06 3895   1.101   4.523  -0.035 -0.1107 -0.1880 -0.2139
  433UNK    F07 3896   1.122   4.342   0.068 -0.0379  0.1785 -0.4335
  433UNK    H08 3897   1.366   4.417   0.017  0.6293  0.9131 -0.7100
  434UNK    F00 3898   3.669   3.850   0.317 -1.0222 -0.3307 -0.0776
  434UNK    C01 3899   3.591   3.778   0.399 -0.4747  0.4007  0.5083
  434UNK    H02 3900   3.576   3.686   0.342  1.4728  0.3979 -0.0520
  434UNK    C03 3901   3.528   3.830   0.500 -0.3482 -0.0208 -0.0585
  434UNK    C04 3902   3.494   3.750   0.620 -0.3409  0.5127  0.3578
  434UNK    F05 3903   3.558   3.793   0.731 -0.2321  0.4341 -0.2295
  434UNK    F06 3904   3.359   3.753   0.653 -0.0117 -0.7638  0.9604
  434UNK    F07 3905   3.527   3.617   0.598 -0.2739  0.3774  0.0993
  434UNK    H08 3906   3.497   3.933   0.511 -4.2607 -1.2850  4.0917
  435UNK    F00 3907   2.869   0.912   1.513  0.3363 -0.2255 -0.1774
  435UNK    C01 3908   2.780   1.007   1.554  0.0867  0.0300  0.2503
  435UNK    H02 3909   2.818   1.089   1.615  0.0472  1.1304 -1.1546
  435UNK    C03 3910   2.654   0.980   1.518  0.2300  0.6902 -0.3009
  435UNK    C04 3911   2.563   1.087   1.464 -0.5427 -0.4942 -0.1904
  435UNK    F05 3912   2.622   1.133   1.348  0.1374 -0.6695 -0.0387
  435UNK    F06 3913   2.439   1.041   1.438 -0.5098 -0.1897 -0.4308
  435UNK    F07 3914   2.560   1.180   1.562  0.4705  0.5825 -0.5969
  435UNK    H08 3915   2.612   0.890   1.561  2.0141 -0.0523 -0.0223
  436UNK    F00 3916   0.783   0.979   3.922 -0.3719  0.4974 -0.3877
  436UNK    C01 3917   0.731   1.055   3.821 -0.6030  0.3357 -0.1164
  436UNK    H02 3918   0.811   1.098   3.760 -0.0029  0.3927  0.6912
  436UNK    C03 3919   0.610   1.106   3.845  0.3815 -0.2356  0.6961
  436UNK    C04 3920   0.526   1.043   3.949  0.5853 -0.3039  0.4722
  436UNK    F05 3921   0.516   0.907   3.923 -0.2548 -0.7625  0.0065
  436UNK    F06 3922   0.565   1.075   4.076 -0.1212 -0.1335  0.0884
  436UNK    F07 3923   0.403   1.100   3.930 -0.6337  0.4728  0.3742
  436UNK    H08 3924   0.559   1.172   3.776  0.2869 -0.1521  0.8445
  437UNK    F00 3925   2.700   1.673   0.005  0.2129 -0.4298  0.3305
  437UNK    C01 3926   2.582   1.654   0.067 -0.1000  0.1142  0.0975
  437UNK    H02 3927   2.584   1.704   0.164 -1.9366 -2.2939  1.5114
  437UNK    C03 3928   2.483   1.591   0.008  0.3371 -0.2575 -0.9974
  437UNK    C04 3929   2.437   1.618  -0.129 -0.6292  0.3167  0.2958
  437UNK    F05 3930   2.329   1.542  -0.168 -0.4310  0.1080 -0.4381
  437UNK    F06 3931   2.399   1.741  -0.167  0.4665  0.0597 -0.2980
  437UNK    F07 3932   2.542   1.582  -0.212  0.1773 -0.4141  0.0587
  437UNK    H08 3933   2.413   1.538   0.071  0.9206 -2.3523 -2.0513
  438UNK    F00 3934   0.364   2.479   2.450 -0.1822  0.0050 -0.1588
  438UNK    C01 3935   0.373   2.367   2.379  0.0106  0.9987  1.0880
  438UNK    H02 3936   0.304   2.294   2.422 -0.3281 -1.6774 -3.3120
  438UNK    C03 3937   0.498   2.343   2.330  0.5874  0.0996 -0.3060
  438UNK    C04 3938   0.580   2.232   2.383  0.0635  0.3412  0.0849
  438UNK    F05 3939   0.529   2.115   2.333 -0.6658 -0.2814  0.0863
  438UNK    F06 3940   0.714   2.251   2.358 -0.3206 -0.1886  0.3775
  438UNK    F07 3941   0.561   2.218   2.522  0.5194 -0.6989 -0.6244
  438UNK    H08 3942   0.556   2.431   2.305  0.2074  0.0574 -1.4012
  439UNK    F00 3943   1.175   0.129   0.451  0.0214  0.1572 -0.0216
  439UNK    C01 3944   1.133   0.168   0.335 -0.8152 -0.3930 -0.7079
  439UNK    H02 3945   1.211   0.153   0.261 -0.5064  0.3623 -0.5449
  439UNK    C03 3946   1.015   0.223   0.323  0.2098  0.3815  0.5096
  439UNK    C04 3947   0.994   0.365   0.367  0.2823  0.2534 -1.1849
  439UNK    F05 3948   1.047   0.452   0.278 -0.3610  0.6173  0.3184
  439UNK    F06 3949   0.862   0.393   0.388 -0.0127  0.1929  0.3234
  439UNK    F07 3950   1.047   0.381   0.491  0.1712 -0.0622  0.0930
  439UNK    H08 3951   0.930   0.163   0.351  1.4831 -0.8584  1.9589
  440UNK    F00 3952   4.302   0.238   2.022 -0.3299 -0.0521 -0.2875
  440UNK    C01 3953   4.390   0.316   2.080 -0.2858  0.0401 -0.5967
  440UNK    H02 3954   4.413   0.402   2.017 -0.2360 -0.4008 -1.1824
  440UNK    C03 3955   4.432   0.296   2.208 -0.2544  0.1192  0.0938
  440UNK    C04 3956   4.335   0.301   2.320 -0.4692 -0.4528  0.8691
  440UNK    F05 3957   4.236   0.385   2.291 -0.0205 -0.4518 -0.1181
  440UNK    F06 3958   4.289   0.182   2.341  0.0739  0.7336  0.3204
  440UNK    F07 3959   4.399   0.348   2.428  0.2616 -0.5611  0.2578
  440UNK    H08 3960   4.528   0.332   2.240  1.2754 -5.4263  3.0352
  441UNK    F00 3961   4.085   2.445   2.001  0.5200 -0.3318 -0.1895
  441UNK    C01 3962   4.063   2.562   2.058  0.4276 -0.7611 -0.8999
  441UNK    H02 3963   4.089   2.558   2.164 -0.5928  1.9467 -0.4647
  441UNK    C03 3964   4.060   2.676   1.985 -0.4381  0.5421  0.0718
  441UNK    C04 3965   3.977   2.792   2.026 -0.0721 -0.5471  0.3922
  441UNK    F05 3966   3.866   2.752   2.090 -0.1915 -0.1592  0.6225
  441UNK    F06 3967   4.048   2.861   2.119 -0.0456  0.4033 -0.0619
  441UNK    F07 3968   3.969   2.879   1.921  0.0779  0.3264  0.1991
  441UNK    H08 3969   4.062   2.673   1.877  1.4695  1.0549  0.0474
  442UNK    F00 3970   0.869   4.790   4.249  0.1611 -0.0476 -0.7057
  442UNK    C01 3971   0.808   4.691   4.181  0.7553 -0.4536 -0.3489
  442UNK    H02 3972   0.827   4.595   4.230  0.2371 -0.6554 -0.5350
  442UNK    C03 3973   0.740   4.701   4.065 -0.3505 -0.4308 -0.8242
  442UNK    C04 3974   0.653   4.591   4.018  0.2551 -0.7049 -0.2171
  442UNK    F05 3975   0.650   4.589   3.880 -0.2115 -0.3348 -0.0758
  442UNK    F06 3976   0.707   4.474   4.064 -0.2282  1.1714  0.6502
  442UNK    F07 3977   0.531   4.618   4.065  0.0348  0.1469 -0.1919
  442UNK    H08 3978   0.763   4.780   3.995  0.8476  0.7318  0.8047
  443UNK    F00 3979   3.268   2.588   1.887  0.2377 -0.5931  0.4786
  443UNK    C01 3980   3.254   2.610   2.017 -0.1552  0.3682 -0.1651
  443UNK    H02 3981   3.352   2.614   2.065 -0.0717  0.4941 -0.3428
  443UNK    C03 3982   3.144   2.647   2.068  0.5730  0.2617 -0.3502
  443UNK    C04 3983   3.052   2.548   2.127 -0.4619 -0.0468  0.4079
  443UNK    F05 3984   3.093   2.421   2.110 -0.3603  0.3601  0.3413
  443UNK    F06 3985   3.066   2.555   2.262  0.5963 -0.4282 -0.0610
  443UNK    F07 3986   2.927   2.580   2.103  0.0328  0.1222 -0.4458
  443UNK    H08 3987   3.129   2.749   2.097 -1.1885 -0.2159  0.5466
  444UNK    F00 3988   0.842   1.052   2.402 -0.2831  0.0956 -0.2422
  444UNK    C01 3989   0.791   1.171   2.416  0.1544 -0.6559  0.1122
  444UNK    H02 3990   0.875   1.240   2.425  0.5696 -1.2947  1.3434
  444UNK    C03 3991   0.674   1.188   2.480 -0.4721  0.1390 -0.4203
  444UNK    C04 3992   0.596   1.308   2.452  0.7075 -0.1798  0.5253
  444UNK    F05 3993   0.492   1.335   2.541 -0.0561 -0.0027  0.0743
  444UNK    F06 3994   0.682   1.411   2.457 -0.5038 -0.2026 -0.0689
  444UNK    F07 3995   0.546   1.283   2.332 -0.2081  0.3240  0.0741
  444UNK    H08 3996   0.635   1.108   2.541  0.2615 -0.6061 -0.9200
  445UNK    F00 3997   0.238   3.615   4.319  0.0546  0.2966 -0.1682
  445UNK    C01 3998   0.261   3.560   4.442  0.2134  0.4602  0.0551
  445UNK    H02 3999   0.267   3.637   4.519  0.2635 -2.1034  2.7879
  445UNK    C03 4000   0.307   3.433   4.459  0.4412  0.1993  0.6721
  445UNK    C04 4001   0.267   3.340   4.558 -0.0125  0.5375 -0.3985
  445UNK    F05 4002   0.138   3.327   4.573  0.2559  0.0327 -0.1639
  445UNK    F06 4003   0.329   3.230   4.530  0.3371  0.3633  0.4031
  445UNK    F07 4004   0.313   3.382   4.676  0.2249  0.4710 -0.2722
  445UNK    H08 4005   0.386   3.401   4.392  0.8294  0.4895  0.9824
  446UNK    F00 4006   1.383   1.627   3.112  0.1418 -0.0677 -1.0414
  446UNK    C01 4007   1.442   1.632   2.992  0.3512  0.3392 -0.3744
  446UNK    H02 4008   1.376   1.602   2.911 -1.6703  3.5624 -0.1316
  446UNK    C03 4009   1.574   1.624   3.002  0.4635 -0.3190 -0.7696
  446UNK    C04 4010   1.670   1.690   2.921  0.5975 -0.0450  0.3285
  446UNK    F05 4011   1.614   1.703   2.789 -0.3720  0.3829  0.2309
  446UNK    F06 4012   1.710   1.815   2.960  0.3763  0.8550 -0.1974
  446UNK    F07 4013   1.781   1.614   2.907  0.2924 -0.0411 -0.0476
  446UNK    H08 4014   1.618   1.567   3.083  1.4126 -1.0662 -1.7887
  447UNK    F00 4015   2.880   3.134   4.342 -0.0381  0.0661  0.0807
  447UNK    C01 4016   2.972   3.207   4.267  0.9273  0.7498 -0.2901
  447UNK    H02 4017   3.074   3.181   4.293  1.1502  1.9120  0.0290
  447UNK    C03 4018   2.929   3.320   4.215  0.4961 -0.3630  0.3062
  447UNK    C04 4019   2.813   3.330   4.124  0.0706 -0.1261 -0.3136
  447UNK    F05 4020   2.819   3.232   4.026 -0.0845 -0.0615 -0.0215
  447UNK    F06 4021   2.692   3.333   4.191  0.8934 -0.5510  0.0220
  447UNK    F07 4022   2.808   3.448   4.062  0.3439 -0.1547  0.4364
  447UNK    H08 4023   3.003   3.395   4.190 -0.6057  0.4161 -0.7403
  448UNK    F00 4024   0.709   1.272   4.608  0.0897  0.1576  0.0648
  448UNK    C01 4025   0.639   1.178   4.664  0.7178 -0.2158 -0.0517
  448UNK    H02 4026   0.543   1.208   4.707  0.5205 -1.2614  0.2648
  448UNK    C03 4027   0.659   1.052   4.628 -0.3340  0.0662  0.5577
  448UNK    C04 4028   0.742   0.960   4.710  0.8986  0.1924  0.4114
  448UNK    F05 4029   0.686   0.880   4.800 -0.2329  0.0012 -0.1399
  448UNK    F06 4030   0.820   0.890   4.630  0.0239  0.3495  0.0363
  448UNK    F07 4031   0.832   1.035   4.774 -0.3620  0.2255 -0.0793
  448UNK    H08 4032   0.660   1.024   4.524  0.8593 -0.7286  0.7557
  449UNK    F00 4033   0.681   3.647   3.706  0.2867 -0.6246 -0.1070
  449UNK    C01 4034   0.619   3.747   3.774 -0.7482  0.1151  0.6636
  449UNK    H02 4035   0.676   3.771   3.863 -0.2794  0.2345  0.3344
  449UNK    C03 4036   0.489   3.730   3.778  0.5032 -0.4146 -0.4492
  449UNK    C04 4037   0.409   3.646   3.868  0.2823  0.0991 -0.0218
  449UNK    F05 4038   0.472   3.530   3.896 -0.3645 -0.4513 -0.2455
  449UNK    F06 4039   0.402   3.707   3.987 -0.4823  0.7745  0.5885
  449UNK    F07 4040   0.280   3.613   3.827  0.4443  0.1255 -1.0543
  449UNK    H08 4041   0.420   3.799   3.732 -1.5651 -0.6654  2.0754
  450UNK    F00 4042   1.361   2.922   3.155  0.0135  0.0583  0.2070
  450UNK    C01 4043   1.446   2.821   3.150  0.5531 -1.0302  0.3950
  450UNK    H02 4044   1.405   2.731   3.104 -2.1639 -0.5245  1.6247
  450UNK    C03 4045   1.574   2.852   3.181 -0.6640  0.6429  0.4452
  450UNK    C04 4046   1.688   2.759   3.149  0.0287 -0.3035  0.2300
  450UNK    F05 4047   1.660   2.629   3.154  0.6269 -0.3753  0.6203
  450UNK    F06 4048   1.726   2.775   3.018 -0.6957  0.0906 -0.0313
  450UNK    F07 4049   1.796   2.776   3.233  0.2665 -0.0673 -0.4643
  450UNK    H08 4050   1.605   2.953   3.206  0.9219  0.3334 -0.1421
  451UNK    F00 4051   4.670   3.815   2.789 -0.9474  0.3987  0.6025
  451UNK    C01 4052   4.696   3.891   2.886 -0.6268 -0.2273 -0.6096
  451UNK    H02 4053   4.678   3.852   2.986 -2.2739  2.0420  0.0544
  451UNK    C03 4054   4.719   4.015   2.855  0.0854 -1.1447  0.4604
  451UNK    C04 4055   4.826   4.111   2.895  0.4207 -0.4889 -0.3942
  451UNK    F05 4056   4.780   4.237   2.888  0.3057 -0.1512 -0.2548
  451UNK    F06 4057   4.864   4.083   3.024  0.5705  0.0972 -0.4217
  451UNK    F07 4058   4.935   4.132   2.821  0.1159  0.4653 -0.5943
  451UNK    H08 4059   4.658   4.064   2.780  3.9182  2.2138 -0.7980
  452UNK    F00 4060   4.727   3.278   1.363 -0.1172 -0.3209 -0.0585
  452UNK    C01 4061   4.734   3.268   1.231  0.2741 -0.0995  0.0341
  452UNK    H02 4062   4.788   3.349   1.183 -0.3958  0.3141 -0.0368
  452UNK    C03 4063   4.646   3.198   1.169  0.0726  1.2962 -0.3563
  452UNK    C04 4064   4.505   3.239   1.140 -0.1702  0.2886 -0.8240
  452UNK    F05 4065   4.502   3.332   1.039 -0.1648 -0.4550  0.1015
  452UNK    F06 4066   4.424   3.136   1.106  0.1272  0.5940 -0.0511
  452UNK    F07 4067   4.450   3.296   1.245 -0.0166  0.1882 -0.1538
  452UNK    H08 4068   4.675   3.112   1.111  1.2237  0.3077  1.6012
  453UNK    F00 4069   3.855   3.675   0.744 -0.4779  0.0687  0.3777
  453UNK    C01 4070   3.836   3.547   0.713 -0.1118  0.3628 -0.2372
  453UNK    H02 4071   3.729   3.528   0.712 -0.0997 -0.1175 -3.8348
  453UNK    C03 4072   3.922   3.488   0.633 -0.3505  0.1829  1.2671
  453UNK    C04 4073   4.065   3.475   0.667  0.3507  0.2675  0.5603
  453UNK    F05 4074   4.129   3.414   0.559 -0.0392  0.0151 -0.1723
  453UNK    F06 4075   4.121   3.593   0.693 -0.6102 -0.6036 -0.1620
  453UNK    F07 4076   4.085   3.396   0.771 -0.1091 -0.1775 -0.6652
  453UNK    H08 4077   3.912   3.472   0.526  2.6894  2.2212  0.5594
  454UNK    F00 4078   0.302   0.173   4.513  0.3862 -0.5065  0.2994
  454UNK    C01 4079   0.245   0.278   4.453 -0.3369 -0.2174  0.1765
  454UNK    H02 4080   0.267   0.271   4.346 -0.9477 -0.0381  0.0374
  454UNK    C03 4081   0.151   0.339   4.518  0.3616  0.1382  0.2044
  454UNK    C04 4082   0.060   0.427   4.432  0.5670  0.7654 -0.6261
  454UNK    F05 4083  -0.020   0.358   4.343  0.2037  0.0978  0.2446
  454UNK    F06 4084  -0.029   0.488   4.520  0.0239  0.3231 -0.1593
  454UNK    F07 4085   0.134   0.514   4.352  0.5819  0.2963  0.0883
  454UNK    H08 4086   0.090   0.282   4.586  0.3402  1.7576  1.6270
  455UNK    F00 4087   2.308   1.913   1.109  0.1984 -0.0781 -0.6979
  455UNK    C01 4088   2.395   1.837   1.175  0.2165  0.1523 -0.4245
  455UNK    H02 4089   2.417   1.742   1.126  0.6496  0.5761 -1.0646
  455UNK    C03 4090   2.467   1.882   1.280  0.0738 -0.0901 -0.4438
  455UNK    C04 4091   2.500   2.021   1.309 -0.5374 -0.4136 -0.3312
  455UNK    F05 4092   2.398   2.108   1.342 -0.3966 -0.1076  0.6673
  455UNK    F06 4093   2.592   2.035   1.405 -0.1421  0.3674 -0.6235
  455UNK    F07 4094   2.562   2.065   1.198 -0.0245 -0.1219  0.4812
  455UNK    H08 4095   2.536   1.814   1.328 -1.4272 -1.6052 -0.3241
  456UNK    F00 4096   2.197   1.837   2.913  0.4185 -0.2978 -0.2162
  456UNK    C01 4097   2.300   1.810   2.991 -0.0612 -0.1272  0.2574
  456UNK    H02 4098   2.307   1.703   3.011 -1.9042 -0.5780 -1.1833
  456UNK    C03 4099   2.336   1.906   3.077 -0.2799 -0.1365  0.1604
  456UNK    C04 4100   2.464   1.903   3.147 -0.1555  0.1327  0.0089
  456UNK    F05 4101   2.479   1.980   3.250 -0.1128 -0.3705 -0.1942
  456UNK    F06 4102   2.488   1.783   3.198 -0.5717 -0.6048  0.0339
  456UNK    F07 4103   2.564   1.932   3.060  0.5975 -0.0745 -0.0585
  456UNK    H08 4104   2.297   2.006   3.066  1.0609  0.1347 -3.3711
  457UNK    F00 4105   1.268   4.734   0.959 -0.3839  0.7533 -0.1504
  457UNK    C01 4106   1.298   4.837   1.040 -0.0155  0.3843 -0.3977
  457UNK    H02 4107   1.270   4.933   0.997  1.0678  0.9142  0.0435
  457UNK    C03 4108   1.381   4.822   1.148  0.2494  0.1626  0.3310
  457UNK    C04 4109   1.511   4.765   1.138 -0.1503  0.4101 -0.2696
  457UNK    F05 4110   1.508   4.653   1.068 -0.1759 -0.6647  0.3708
  457UNK    F06 4111   1.577   4.856   1.062  0.1807 -0.2781  0.3677
  457UNK    F07 4112   1.574   4.757   1.258  0.1584  0.5429  0.2444
  457UNK    H08 4113   1.365   4.899   1.222  2.3360  2.5786 -1.5222
  458UNK    F00 4114   1.837   1.374   2.501 -0.4341  0.6643 -0.2607
  458UNK    C01 4115   1.915   1.403   2.606  0.1000 -0.8620 -1.0621
  458UNK    H02 4116   1.879   1.347   2.692  2.1790 -0.7592 -0.0542
  458UNK    C03 4117   2.036   1.463   2.593  0.4185 -0.4611  0.6259
  458UNK    C04 4118   2.124   1.481   2.707  0.3611  0.2185  0.0187
  458UNK    F05 4119   2.189   1.362   2.725  0.3829 -0.1142 -0.1582
  458UNK    F06 4120   2.219   1.576   2.687 -0.2613  0.8673 -0.0184
  458UNK    F07 4121   2.056   1.496   2.824 -0.1723  0.7179  0.0646
  458UNK    H08 4122   2.049   1.536   2.514 -1.9435 -1.1411 -0.4700
  459UNK    F00 4123   1.507   2.845   0.720 -0.0685  0.1563 -0.1333
  459UNK    C01 4124   1.561   2.959   0.676  0.9373 -0.3479  0.2123
  459UNK    H02 4125   1.586   3.032   0.752  0.0099  2.1613 -1.7598
  459UNK    C03 4126   1.566   2.988   0.551  1.6061 -0.1394 -0.2307
  459UNK    C04 4127   1.623   3.106   0.498  0.2420  0.0196  0.0334
  459UNK    F05 4128   1.653   3.205   0.590  0.0506  0.3358 -0.0174
  459UNK    F06 4129   1.735   3.074   0.427  0.6233  0.4673 -1.0732
  459UNK    F07 4130   1.547   3.167   0.407  0.3783 -0.1165 -1.0217
  459UNK    H08 4131   1.502   2.940   0.479 -0.3782 -1.5496  2.2983
  460UNK    F00 4132   2.709   4.123   3.274  0.0783  0.2426 -0.7925
  460UNK    C01 4133   2.663   4.232   3.344 -0.7038 -0.2375 -0.1950
  460UNK    H02 4134   2.724   4.322   3.337 -2.1813  0.8406  0.2534
  460UNK    C03 4135   2.590   4.204   3.446  0.1981  0.8799 -0.2143
  460UNK    C04 4136   2.479   4.292   3.493  0.2295  0.2214  0.0436
  460UNK    F05 4137   2.522   4.417   3.525 -0.6014 -0.7048  0.3941
  460UNK    F06 4138   2.371   4.303   3.405  0.4960 -0.4466  0.2819
  460UNK    F07 4139   2.424   4.248   3.613 -0.1508  0.1831  0.0787
  460UNK    H08 4140   2.576   4.102   3.480 -0.1314  1.5332  1.7833
  461UNK    F00 4141   1.579   1.233   0.648 -0.1104 -0.4339  0.0536
  461UNK    C01 4142   1.592   1.248   0.517  0.3425  0.3443  0.4988
  461UNK    H02 4143   1.579   1.353   0.491  0.5097  0.0685 -0.7967
  461UNK    C03 4144   1.634   1.145   0.444  0.0593 -0.1189  0.2125
  461UNK    C04 4145   1.545   1.032   0.410 -0.1142 -0.1993 -0.7086
  461UNK    F05 4146   1.441   1.005   0.493 -0.2314  0.1154 -0.0160
  461UNK    F06 4147   1.487   1.030   0.290 -0.1905 -0.0059  0.3327
  461UNK    F07 4148   1.626   0.927   0.409 -0.1479 -0.0670  0.3745
  461UNK    H08 4149   1.738   1.121   0.426 -0.0139 -0.5227  0.3120
  462UNK    F00 4150   0.958   2.344   0.071 -0.0372  0.2334 -0.1834
  462UNK    C01 4151   1.060   2.286  -0.002 -0.1300  0.1580  0.0701
  462UNK    H02 4152   1.026   2.234  -0.091  0.3510  1.1248 -0.6980
  462UNK    C03 4153   1.184   2.331   0.026 -1.1198  0.2938  0.1763
  462UNK    C04 4154   1.267   2.261   0.125  0.6117  0.0382 -0.3237
  462UNK    F05 4155   1.320   2.147   0.073 -0.1996 -0.4176 -0.0212
  462UNK    F06 4156   1.372   2.321   0.168 -0.1463 -0.2021 -0.1955
  462UNK    F07 4157   1.188   2.220   0.226  0.3236  0.2102 -0.1528
  462UNK    H08 4158   1.248   2.354  -0.058 -1.2801 -2.9084 -0.9553
  463UNK    F00 4159   2.284   3.411   0.142  0.4247  0.0054 -0.0802
  463UNK    C01 4160   2.257   3.486   0.249  0.5571 -0.0384 -0.4509
  463UNK    H02 4161   2.161   3.446   0.283  1.1444 -0.4639  0.7716
  463UNK    C03 4162   2.356   3.519   0.329  0.4341  0.3564 -0.3942
  463UNK    C04 4163   2.334   3.580   0.460  1.0106 -0.3814 -0.4193
  463UNK    F05 4164   2.449   3.622   0.507  0.6716 -0.3583  0.2547
  463UNK    F06 4165   2.250   3.687   0.448  0.2715  0.1482  0.4589
  463UNK    F07 4166   2.280   3.488   0.549 -0.3541 -0.3126 -0.6774
  463UNK    H08 4167   2.445   3.555   0.279 -0.5690  1.0976 -1.7093
  464UNK    F00 4168   2.758   4.773   1.608 -0.3575 -0.0762  0.2584
  464UNK    C01 4169   2.828   4.681   1.678  0.0360  0.4242  0.3007
  464UNK    H02 4170   2.779   4.656   1.772  0.7462 -1.7697  0.1371
  464UNK    C03 4171   2.958   4.663   1.658 -0.4298  0.3914 -0.1903
  464UNK    C04 4172   3.039   4.547   1.695 -0.3737  0.0919  0.5850
  464UNK    F05 4173   3.162   4.582   1.697  1.2835 -0.5846  0.1248
  464UNK    F06 4174   3.005   4.504   1.819  0.0110 -0.4113 -0.5713
  464UNK    F07 4175   3.033   4.446   1.609 -0.1875 -0.0991 -0.0281
  464UNK    H08 4176   3.022   4.746   1.633  0.1736 -0.3939 -1.3384
  465UNK    F00 4177   1.905   3.224   4.313  0.3864  1.2572 -0.4259
  465UNK    C01 4178   1.926   3.354   4.318 -0.3913 -0.1302  0.1741
  465UNK    H02 4179   1.996   3.388   4.241  0.5617 -1.4956  0.3959
  465UNK    C03 4180   1.908   3.418   4.433  0.4241 -0.3182  0.1783
  465UNK    C04 4181   2.013   3.428   4.537  0.0825 -0.0476 -0.4056
  465UNK    F05 4182   2.114   3.500   4.481  0.1057  0.0435  0.5930
  465UNK    F06 4183   1.977   3.486   4.654  0.0388 -0.0919  0.7055
  465UNK    F07 4184   2.048   3.303   4.573  0.1096 -0.1269 -0.0814
  465UNK    H08 4185   1.816   3.471   4.454  0.1926  0.3962 -2.2977
  466UNK    F00 4186   3.872   4.779   3.947  0.0524  0.3340  0.0831
  466UNK    C01 4187   3.917   4.669   4.008  0.0661 -0.1998  0.0130
  466UNK    H02 4188   4.025   4.685   4.011  0.0892 -0.2241 -0.6512
  466UNK    C03 4189   3.846   4.561   3.960  0.3229  0.2377 -0.4169
  466UNK    C04 4190   3.870   4.433   4.027 -0.3450  0.3384 -0.3402
  466UNK    F05 4191   3.755   4.399   4.092  0.0346 -0.2191 -0.1984
  466UNK    F06 4192   3.889   4.328   3.945  0.2962 -0.0899  0.3795
  466UNK    F07 4193   3.970   4.428   4.121  0.2688 -0.0774 -0.1857
  466UNK    H08 4194   3.813   4.545   3.858  0.0586 -1.3390 -0.1103
  467UNK    F00 4195   0.080   2.522   2.459  0.9415 -0.4597  0.1916
  467UNK    C01 4196  -0.044   2.574   2.443 -0.1389  0.2130  0.0438
  467UNK    H02 4197  -0.052   2.673   2.488  0.6090  0.4595 -0.3459
  467UNK    C03 4198  -0.140   2.500   2.392  0.2525  0.4022 -0.7573
  467UNK    C04 4199  -0.110   2.401   2.281 -0.3430 -0.0192  0.5007
  467UNK    F05 4200  -0.218   2.380   2.202  0.2782  0.3950 -0.2593
  467UNK    F06 4201  -0.004   2.430   2.209 -0.1898  0.1411 -0.1684
  467UNK    F07 4202  -0.082   2.289   2.347  0.2508 -0.1240 -0.1309
  467UNK    H08 4203  -0.221   2.465   2.455  0.1557  0.5699 -0.7869
  468UNK    F00 4204   0.658   4.835   0.682  0.0087  0.0965  0.0870
  468UNK    C01 4205   0.663   4.710   0.649 -0.7491  0.0811 -0.7727
  468UNK    H02 4206   0.765   4.676   0.630 -1.6909 -2.3441 -1.8763
  468UNK    C03 4207   0.560   4.631   0.663  0.1809  0.4103  0.4449
  468UNK    C04 4208   0.560   4.485   0.655 -0.3308  0.0644  0.4363
  468UNK    F05 4209   0.607   4.432   0.766  0.3505  0.5918 -0.0851
  468UNK    F06 4210   0.433   4.436   0.627 -0.2652 -0.2899 -0.0682
  468UNK    F07 4211   0.634   4.433   0.553 -0.2405 -0.1111 -0.0752
  468UNK    H08 4212   0.461   4.668   0.685 -0.9421 -1.4995 -1.0091
  469UNK    F00 4213   1.097   3.913   3.237 -0.0805 -0.0131  0.3160
  469UNK    C01 4214   0.965   3.938   3.253 -0.3530 -0.4124 -0.4316
  469UNK    H02 4215   0.919   3.969   3.159 -1.2449 -1.2489 -0.2864
  469UNK    C03 4216   0.900   3.893   3.357  1.1157  0.0945  0.5375
  469UNK    C04 4217   0.881   3.977   3.477  0.1876 -0.1357  0.4134
  469UNK    F05 4218   0.845   3.907   3.584  0.0874 -0.0425 -0.4249
  469UNK    F06 4219   0.990   4.047   3.517 -0.1489  0.5149 -0.6261
  469UNK    F07 4220   0.784   4.062   3.455 -0.2412 -0.1215  0.2346
  469UNK    H08 4221   0.912   3.789   3.385  0.7109  0.1290  0.8488
  470UNK    F00 4222   3.473   0.656   3.225 -0.2917 -0.1707 -0.3321
  470UNK    C01 4223   3.378   0.682   3.140  0.1732 -0.2870  0.3363
  470UNK    H02 4224   3.282   0.697   3.190  0.2287 -0.1108  0.3894
  470UNK    C03 4225   3.407   0.695   3.013 -0.0781 -0.4706  0.2881
  470UNK    C04 4226   3.313   0.739   2.907 -0.7458  0.1784 -0.2718
  470UNK    F05 4227   3.316   0.873   2.893 -0.3255  0.8077  0.2692
  470UNK    F06 4228   3.353   0.692   2.794 -0.3574 -0.7973  0.0116
  470UNK    F07 4229   3.191   0.678   2.896 -0.6294  0.1646 -0.5023
  470UNK    H08 4230   3.495   0.643   2.977 -1.1056 -2.3861  0.4238
  471UNK    F00 4231   3.107   0.239   1.643  0.6656  0.1962 -0.2480
  471UNK    C01 4232   3.186   0.307   1.733  0.2037  0.1882  0.1736
  471UNK    H02 4233   3.155   0.411   1.735 -0.9442 -0.1376 -0.2955
  471UNK    C03 4234   3.301   0.255   1.782 -0.2785  0.5220 -0.6196
  471UNK    C04 4235   3.425   0.271   1.708 -0.1014 -0.7855 -0.0376
  471UNK    F05 4236   3.412   0.278   1.574  0.5679  0.0824  0.1444
  471UNK    F06 4237   3.480   0.390   1.748 -0.3264  0.8140 -0.3858
  471UNK    F07 4238   3.519   0.181   1.747 -0.4526 -0.0427 -0.2093
  471UNK    H08 4239   3.293   0.179   1.858  2.8956  0.3244 -0.3498
  472UNK    F00 4240   1.193   1.045   1.140  0.1250 -0.2950  0.2172
  472UNK    C01 4241   1.226   1.153   1.194 -0.2251  0.0978 -0.0276
  472UNK    H02 4242   1.140   1.216   1.215 -0.6888 -0.4965 -0.1046
  472UNK    C03 4243   1.349   1.163   1.239  0.1680  0.0079  0.2153
  472UNK    C04 4244   1.410   1.272   1.324  0.2938  0.3529  0.2066
  472UNK    F05 4245   1.387   1.239   1.451  0.1113 -0.2827  0.1285
  472UNK    F06 4246   1.540   1.303   1.299  0.1409 -0.0346  0.7171
  472UNK    F07 4247   1.349   1.389   1.307  0.1848  0.0489 -0.3092
  472UNK    H08 4248   1.431   1.117   1.185  0.1833  1.1702 -0.8001
  473UNK    F00 4249   2.210   2.307   4.482 -0.1731  0.0665  0.0266
  473UNK    C01 4250   2.225   2.175   4.452 -0.6961 -0.5687 -0.4525
  473UNK    H02 4251   2.128   2.132   4.427  1.0788 -4.2311 -1.7808
  473UNK    C03 4252   2.307   2.113   4.533 -0.6334  0.2326  0.1666
  473UNK    C04 4253   2.251   2.035   4.647 -0.1337 -0.2177  0.0607
  473UNK    F05 4254   2.190   1.926   4.601 -0.2622  0.6878  0.4412
  473UNK    F06 4255   2.340   1.987   4.734  0.0763 -0.3239 -0.6809
  473UNK    F07 4256   2.167   2.113   4.726 -0.1151  0.2660  0.1321
  473UNK    H08 4257   2.400   2.163   4.557 -0.3780 -0.6125  0.9838
  474UNK    F00 4258   0.408   3.194   0.165 -0.0246  0.5068 -0.1102
  474UNK    C01 4259   0.426   3.308   0.223  0.3868  0.3372 -0.4815
  474UNK    H02 4260   0.348   3.321   0.299  0.6422 -0.1653 -0.1221
  474UNK    C03 4261   0.523   3.387   0.176  0.6890 -0.7071  0.0969
  474UNK    C04 4262   0.540   3.519   0.240  0.3390  0.1506  0.0430
  474UNK    F05 4263   0.621   3.611   0.178 -0.3266 -0.3957 -0.3506
  474UNK    F06 4264   0.424   3.569   0.292  0.2484  0.1931  0.1168
  474UNK    F07 4265   0.606   3.502   0.357 -0.2693 -0.3945  0.1518
  474UNK    H08 4266   0.608   3.361   0.115  0.5283  0.1866 -0.5224
  475UNK    F00 4267   0.577   1.762   2.435  0.0576 -0.0574  0.9161
  475UNK    C01 4268   0.703   1.729   2.405 -0.2517  0.2295 -0.6166
  475UNK    H02 4269   0.694   1.646   2.335 -1.1563 -0.9241  0.8024
  475UNK    C03 4270   0.798   1.819   2.397 -0.0409 -0.2103  1.1779
  475UNK    C04 4271   0.860   1.891   2.511  0.3696 -0.4098 -0.1541
  475UNK    F05 4272   0.876   2.017   2.469 -0.1586  0.4443 -0.3091
  475UNK    F06 4273   0.798   1.905   2.634  0.5551  0.0262 -0.0195
  475UNK    F07 4274   0.980   1.836   2.533 -0.8201  0.5558  0.2026
  475UNK    H08 4275   0.864   1.821   2.312  0.5340 -3.8130  1.3925
  476UNK    F00 4276   3.376   4.727   2.618 -0.4093 -0.6657  0.0485
  476UNK    C01 4277   3.390   4.613   2.694 -0.0086 -0.0982 -0.0178
  476UNK    H02 4278   3.442   4.541   2.630  0.4554 -0.8656  1.1934
  476UNK    C03 4279   3.369   4.610   2.821  0.6065 -0.6153 -0.1725
  476UNK    C04 4280   3.441   4.530   2.918 -0.2274 -0.4572 -0.1970
  476UNK    F05 4281   3.460   4.402   2.878 -0.3606  0.2435  0.8823
  476UNK    F06 4282   3.571   4.572   2.936 -0.0086  0.1940 -0.0091
  476UNK    F07 4283   3.378   4.535   3.039  0.4831 -0.3861 -0.3464
  476UNK    H08 4284   3.283   4.660   2.863  0.4509 -1.5012  0.6008
  477UNK    F00 4285   4.142   4.768   2.271  0.1812  0.3949  0.0924
  477UNK    C01 4286   4.051   4.819   2.188  0.3190 -0.3002 -0.9453
  477UNK    H02 4287   4.091   4.889   2.114  0.1292 -0.1001 -0.8599
  477UNK    C03 4288   3.926   4.779   2.202 -0.0529 -0.5973 -0.5866
  477UNK    C04 4289   3.835   4.854   2.299 -0.5551  0.2014 -1.0251
  477UNK    F05 4290   3.729   4.776   2.335  0.1650 -0.5189 -0.0842
  477UNK    F06 4291   3.892   4.878   2.422 -0.1747  0.3590 -0.0234
  477UNK    F07 4292   3.776   4.970   2.250  0.0214 -0.0614 -0.2044
  477UNK    H08 4293   3.900   4.675   2.199 -0.8688 -0.3876 -1.9223
  478UNK    F00 4294   4.083   3.803   0.371  0.3774 -0.1064 -0.0390
  478UNK    C01 4295   3.978   3.879   0.413 -0.2215 -0.5536  0.9022
  478UNK    H02 4296   3.961   3.881   0.521  0.4263  0.2998  1.0070
  478UNK    C03 4297   3.971   3.994   0.340 -0.0611 -0.1449 -0.2380
  478UNK    C04 4298   3.893   4.110   0.391  0.2815  0.1523 -0.4048
  478UNK    F05 4299   3.770   4.085   0.435 -0.0425  0.2393 -0.2016
  478UNK    F06 4300   3.951   4.169   0.504 -0.2155 -0.0180  0.3079
  478UNK    F07 4301   3.877   4.202   0.295  0.0301  0.3331 -0.1470
  478UNK    H08 4302   4.043   4.021   0.264  0.5218 -0.8902  0.0365
  479UNK    F00 4303   3.216   4.100   3.518  0.3130 -0.1215 -0.2702
  479UNK    C01 4304   3.122   4.024   3.465 -0.0927 -0.0363  0.2927
  479UNK    H02 4305   3.160   3.942   3.404  0.9531 -0.0299  0.9136
  479UNK    C03 4306   3.001   4.033   3.513  0.1491 -0.4087  0.2585
  479UNK    C04 4307   2.969   4.090   3.641  0.5370  0.5903 -0.6084
  479UNK    F05 4308   3.035   4.030   3.749 -0.1302 -0.0626  0.1178
  479UNK    F06 4309   2.992   4.224   3.649 -0.5359  0.3803  0.1431
  479UNK    F07 4310   2.838   4.087   3.673  0.2481 -0.1909 -0.1521
  479UNK    H08 4311   2.914   3.996   3.462 -0.0664 -1.1881  1.1602
  480UNK    F00 4312   4.429   3.836   0.985 -0.0528  0.0860 -0.3086
  480UNK    C01 4313   4.455   3.838   1.118 -0.1426  0.2117  0.4648
  480UNK    H02 4314   4.429   3.928   1.173  0.1098  1.0987 -0.8345
  480UNK    C03 4315   4.503   3.731   1.184  0.3821  0.3650  0.1562
  480UNK    C04 4316   4.643   3.721   1.225 -0.1841 -0.0580  0.4257
  480UNK    F05 4317   4.714   3.776   1.129 -0.3789  0.0496 -0.2150
  480UNK    F06 4318   4.675   3.782   1.345 -0.0556  0.0394 -0.5183
  480UNK    F07 4319   4.688   3.591   1.239 -1.1081  0.0302 -0.3696
  480UNK    H08 4320   4.431   3.655   1.211  1.4057 -0.1417  1.5458
  481UNK    F00 4321   4.141   2.893   2.703 -0.6225  0.2853  0.0075
  481UNK    C01 4322   4.198   2.774   2.691  0.3914 -0.0566 -1.0964
  481UNK    H02 4323   4.307   2.773   2.694  0.3776 -0.7006  1.4596
  481UNK    C03 4324   4.114   2.673   2.665  0.7367 -0.7417  0.0639
  481UNK    C04 4325   4.065   2.641   2.530 -0.1126 -0.1283 -0.3006
  481UNK    F05 4326   4.157   2.582   2.451  0.6788 -0.1760 -0.4250
  481UNK    F06 4327   3.952   2.565   2.543 -0.2050  0.2040 -0.5560
  481UNK    F07 4328   4.012   2.754   2.469 -0.3800 -0.0483 -0.1154
  481UNK    H08 4329   4.064   2.619   2.744 -1.4564 -0.8015 -1.2804
  482UNK    F00 4330   0.284   1.328   0.744 -0.3588  0.1808  0.2158
  482UNK    C01 4331   0.342   1.214   0.706 -0.4187 -0.7032  0.1272
  482UNK    H02 4332   0.283   1.130   0.744 -0.3801 -1.1038 -0.6672
  482UNK    C03 4333   0.466   1.210   0.684 -0.3283 -0.1783 -0.6767
  482UNK    C04 4334   0.539   1.089   0.649  0.5086  0.1937 -0.8951
  482UNK    F05 4335   0.572   1.001   0.749  0.1160 -0.1247  0.1894
  482UNK    F06 4336   0.477   1.016   0.557  0.3322  0.1240 -0.1367
  482UNK    F07 4337   0.660   1.109   0.596  0.0397 -0.2838  0.5585
  482UNK    H08 4338   0.524   1.300   0.674 -0.5425 -0.3234 -5.6689
  483UNK    F00 4339   3.537   3.817   2.767  0.1132 -0.0360  0.4533
  483UNK    C01 4340   3.467   3.914   2.815  0.1582 -0.1636 -0.0188
  483UNK    H02 4341   3.497   4.006   2.765 -1.0544  0.6937  0.7781
  483UNK    C03 4342   3.421   3.911   2.941 -0.5507  0.7537 -0.2575
  483UNK    C04 4343   3.320   3.999   3.002  0.5734 -0.2533  0.3902
  483UNK    F05 4344   3.318   3.985   3.134 -0.1606  0.5108 -0.0524
  483UNK    F06 4345   3.366   4.126   3.002 -0.2613 -0.0338 -0.0458
  483UNK    F07 4346   3.199   3.992   2.943 -0.0272  0.3875  0.0069
  483UNK    H08 4347   3.437   3.817   2.991  0.9965  1.7767  1.3433
  484UNK    F00 4348   4.600   0.666   1.987  0.2692  0.6265  0.2242
  484UNK    C01 4349   4.729   0.665   1.949  0.3722 -0.6353 -0.0034
  484UNK    H02 4350   4.740   0.701   1.847 -2.4445  1.8336  0.4145
  484UNK    C03 4351   4.819   0.673   2.043  0.2638  0.0786  0.8660
  484UNK    C04 4352   4.880   0.555   2.106 -1.3406  0.1684 -0.2334
  484UNK    F05 4353   4.906   0.585   2.236 -0.2524 -0.8294  0.3370
  484UNK    F06 4354   4.789   0.452   2.118 -0.3312  0.0557  0.0493
  484UNK    F07 4355   4.988   0.516   2.035 -0.4651  0.2411  0.5210
  484UNK    H08 4356   4.822   0.762   2.104  2.1259  0.7056 -0.0776
  485UNK    F00 4357   2.482   3.321   2.554  0.0521 -0.6646 -0.1328
  485UNK    C01 4358   2.421   3.258   2.448  1.0788  0.2018  0.0748
  485UNK    H02 4359   2.314   3.246   2.466  1.0967 -1.3513 -0.6529
  485UNK    C03 4360   2.494   3.202   2.356  0.9104  0.3596  0.2951
  485UNK    C04 4361   2.429   3.149   2.240 -0.3684  1.0443  0.1138
  485UNK    F05 4362   2.362   3.240   2.169 -0.6240 -0.2171  0.3552
  485UNK    F06 4363   2.533   3.104   2.163  0.7426  0.7165 -0.1118
  485UNK    F07 4364   2.344   3.045   2.271 -0.3438  0.6669 -0.5312
  485UNK    H08 4365   2.589   3.155   2.376  0.5530 -0.7069 -0.4403
  486UNK    F00 4366   0.891   3.945   0.052  0.1458  0.5812 -0.2107
  486UNK    C01 4367   0.761   3.916   0.063 -0.7402 -0.1799 -0.0450
  486UNK    H02 4368   0.753   3.822   0.118 -1.4601 -0.0149  0.1391
  486UNK    C03 4369   0.682   4.017   0.093  0.1946  0.7814 -0.2007
  486UNK    C04 4370   0.582   4.010   0.199  0.2898  0.4294 -0.6753
  486UNK    F05 4371   0.471   4.089   0.170 -0.5967  0.0887 -0.0029
  486UNK    F06 4372   0.528   3.883   0.215 -0.4408  0.1614  0.4101
  486UNK    F07 4373   0.630   4.061   0.319 -0.0706  0.3908  0.2742
  486UNK    H08 4374   0.696   4.115   0.050  2.8172  0.7600  0.4112
  487UNK    F00 4375   3.966   1.416   2.808  0.1853  0.1584 -0.0206
  487UNK    C01 4376   4.086   1.457   2.841 -0.4834 -0.2016 -0.0158
  487UNK    H02 4377   4.109   1.435   2.945  1.4585  1.4391 -0.0332
  487UNK    C03 4378   4.159   1.517   2.744 -0.2692  0.9917 -0.0784
  487UNK    C04 4379   4.307   1.520   2.748  0.1642 -0.8247  0.0230
  487UNK    F05 4380   4.363   1.396   2.739 -0.4482 -0.1267  0.2797
  487UNK    F06 4381   4.346   1.600   2.643 -0.3854 -0.1476 -0.1303
  487UNK    F07 4382   4.335   1.581   2.868 -0.0784 -0.4039  0.0209
  487UNK    H08 4383   4.113   1.582   2.672  0.1961  1.2076 -0.1875
  488UNK    F00 4384   1.326   1.992   1.914 -0.1850 -0.2099 -0.5282
  488UNK    C01 4385   1.363   2.036   2.037 -0.7623  0.5004  0.2966
  488UNK    H02 4386   1.452   1.983   2.072 -0.2258  0.5584 -0.9157
  488UNK    C03 4387   1.275   2.095   2.114  0.2371 -0.5505 -0.2494
  488UNK    C04 4388   1.314   2.162   2.240 -0.9693  0.7308 -0.6984
  488UNK    F05 4389   1.401   2.099   2.328 -0.2332 -0.1374 -0.3073
  488UNK    F06 4390   1.387   2.269   2.200 -0.2398 -0.0512 -0.5011
  488UNK    F07 4391   1.207   2.212   2.300 -0.2290  0.2265  0.0890
  488UNK    H08 4392   1.171   2.071   2.097 -0.0014  2.0156 -3.3544
  489UNK    F00 4393   0.305   1.693   2.266 -0.6583 -0.3324 -0.6215
  489UNK    C01 4394   0.179   1.671   2.286 -0.5902  0.4110 -0.2385
  489UNK    H02 4395   0.119   1.761   2.305 -2.0027 -0.7043  0.7869
  489UNK    C03 4396   0.137   1.543   2.282  0.4688 -0.4223  0.3619
  489UNK    C04 4397   0.085   1.455   2.382 -0.1075 -0.2368 -0.3517
  489UNK    F05 4398   0.077   1.328   2.326  0.4863  0.4756  0.0117
  489UNK    F06 4399   0.158   1.455   2.496  0.0819 -0.1554 -0.6159
  489UNK    F07 4400  -0.038   1.502   2.417 -0.1497  0.0797 -0.2089
  489UNK    H08 4401   0.176   1.483   2.200  0.1476 -1.0382  0.6540
  490UNK    F00 4402   1.174   0.916   2.579  0.0563 -0.4329  0.7061
  490UNK    C01 4403   1.293   0.960   2.622 -0.0887 -0.2771 -0.2035
  490UNK    H02 4404   1.344   1.041   2.569  1.3305 -2.0138 -1.6438
  490UNK    C03 4405   1.321   0.920   2.745 -0.7567 -0.3818 -0.1288
  490UNK    C04 4406   1.414   0.981   2.840 -0.1760  0.6337  0.4735
  490UNK    F05 4407   1.349   1.070   2.917 -0.1048  0.1986 -0.6014
  490UNK    F06 4408   1.470   0.875   2.907  0.2452 -0.5155 -0.3180
  490UNK    F07 4409   1.514   1.041   2.775  0.3445 -0.0823 -0.3292
  490UNK    H08 4410   1.289   0.819   2.765  1.0772 -1.4099 -2.0360
  491UNK    F00 4411   0.018   3.893   0.332 -0.0388  0.1954  0.4283
  491UNK    C01 4412   0.144   3.924   0.304  0.3800 -0.3827 -0.3394
  491UNK    H02 4413   0.208   3.893   0.387 -1.9637 -0.6164  1.5042
  491UNK    C03 4414   0.182   3.962   0.189 -0.6747  0.6013  0.2944
  491UNK    C04 4415   0.146   4.087   0.124 -0.8093 -0.2757 -1.0864
  491UNK    F05 4416   0.161   4.078  -0.009  0.0190 -0.4170 -0.1830
  491UNK    F06 4417   0.019   4.116   0.143  0.4750  0.1702  0.6012
  491UNK    F07 4418   0.224   4.200   0.155  0.2749  0.5205  0.3228
  491UNK    H08 4419   0.264   3.917   0.135 -0.4314  0.9901  0.3361
  492UNK    F00 4420   1.233   0.740   4.399  0.5073 -0.3081  0.1725
  492UNK    C01 4421   1.341   0.682   4.457  0.1635  0.2541  0.6173
  492UNK    H02 4422   1.394   0.622   4.383 -1.1834  1.7757 -1.6781
  492UNK    C03 4423   1.371   0.708   4.580 -0.1065  0.5147 -0.2169
  492UNK    C04 4424   1.462   0.631   4.665 -0.0521  0.1240 -0.4936
  492UNK    F05 4425   1.586   0.682   4.673  0.1169 -0.1339  0.2624
  492UNK    F06 4426   1.422   0.631   4.794  0.0035 -0.3049  0.0757
  492UNK    F07 4427   1.478   0.505   4.631 -0.5216 -0.1052  0.1352
  492UNK    H08 4428   1.305   0.766   4.642 -1.0072 -0.4614 -0.2569
  493UNK    F00 4429   4.211   0.361   1.778  0.4771 -0.1671  0.4617
  493UNK    C01 4430   4.205   0.242   1.723  0.4192  0.5446 -0.4442
  493UNK    H02 4431   4.279   0.174   1.762  0.3782  0.7572  0.0078
  493UNK    C03 4432   4.114   0.235   1.625 -0.2034 -0.2843 -0.3361
  493UNK    C04 4433   4.048   0.115   1.576  0.3272  0.7730  0.0635
  493UNK    F05 4434   4.121   0.000   1.582 -0.6286 -0.4350  0.4711
  493UNK    F06 4435   3.944   0.086   1.654 -0.1701 -0.2921  0.4202
  493UNK    F07 4436   4.001   0.131   1.447 -0.2646 -0.3922  0.1576
  493UNK    H08 4437   4.033   0.303   1.646 -0.7221 -1.6429  2.6033
  494UNK    F00 4438   0.431   2.595   3.988  0.2386  0.1083 -0.3524
  494UNK    C01 4439   0.366   2.584   4.106 -0.1067 -0.3676  0.2899
  494UNK    H02 4440   0.432   2.578   4.192 -0.7304  4.0587  1.3460
  494UNK    C03 4441   0.237   2.609   4.116  0.6225  0.2041 -0.1669
  494UNK    C04 4442   0.143   2.516   4.180 -0.3472  0.2359  0.5069
  494UNK    F05 4443   0.152   2.539   4.311  0.2436 -0.4560  0.1527
  494UNK    F06 4444   0.016   2.548   4.144  0.3665  0.4518 -0.9988
  494UNK    F07 4445   0.171   2.386   4.159 -0.4044 -0.3821 -0.1395
  494UNK    H08 4446   0.198   2.708   4.099  0.0685  0.8608  3.9711
  495UNK    F00 4447   3.457   0.346   0.916 -0.1964  0.3793 -0.1169
  495UNK    C01 4448   3.431   0.455   0.988 -0.0108 -0.2113  0.9079
  495UNK    H02 4449   3.385   0.422   1.081  0.4923 -0.0083  1.2341
  495UNK    C03 4450   3.511   0.561   0.965  0.0076 -0.2070  0.0160
  495UNK    C04 4451   3.548   0.660   1.069 -0.5974  0.4897  0.3207
  495UNK    F05 4452   3.580   0.784   1.022  0.5981 -0.4239  0.5522
  495UNK    F06 4453   3.458   0.679   1.168 -0.4660 -0.1607  0.1674
  495UNK    F07 4454   3.656   0.613   1.131  0.4362  0.2791  0.4943
  495UNK    H08 4455   3.583   0.543   0.887  0.4291 -0.2483  0.4112
  496UNK    F00 4456   4.655   2.089   4.796 -0.1419  0.0166 -0.1117
  496UNK    C01 4457   4.603   2.004   4.888 -0.4843 -0.2576 -0.5739
  496UNK    H02 4458   4.511   2.044   4.932 -0.0976  0.4858 -0.4345
  496UNK    C03 4459   4.663   1.894   4.917  0.3375  0.3116 -0.0373
  496UNK    C04 4460   4.780   1.884   5.011  0.4256  0.1965  0.1012
  496UNK    F05 4461   4.730   1.926   5.130  0.1612 -0.9290 -0.0710
  496UNK    F06 4462   4.833   1.763   5.028  0.3746  0.4842 -0.5668
  496UNK    F07 4463   4.877   1.968   4.976 -0.4677 -0.0604  0.0599
  496UNK    H08 4464   4.615   1.798   4.905 -0.8228  1.0734 -2.0637
  497UNK    F00 4465   1.939   2.068   1.504  0.6215 -0.2568 -0.1905
  497UNK    C01 4466   1.969   1.941   1.485  0.0185  0.3111  0.3320
  497UNK    H02 4467   1.881   1.900   1.436 -0.0943  2.8280 -1.7596
  497UNK    C03 4468   2.099   1.921   1.463  0.0235  0.3499  0.1958
  497UNK    C04 4469   2.202   1.890   1.568  0.2164  0.9066 -0.1327
  497UNK    F05 4470   2.326   1.906   1.526  0.0124 -0.0937 -0.3484
  497UNK    F06 4471   2.182   1.982   1.668 -0.1745  0.1464  0.4960
  497UNK    F07 4472   2.185   1.763   1.613  0.3431  0.3308 -0.5596
  497UNK    H08 4473   2.137   1.910   1.362 -1.3688  3.9009 -0.8598
  498UNK    F00 4474   1.529   1.747   3.425 -0.2487  0.3993 -0.0803
  498UNK    C01 4475   1.588   1.795   3.535 -0.1907  0.9019 -0.5156
  498UNK    H02 4476   1.658   1.868   3.495  1.6605  0.6229  1.9412
  498UNK    C03 4477   1.524   1.797   3.652 -0.3210  0.2986 -0.5239
  498UNK    C04 4478   1.573   1.875   3.764 -0.4462  0.9019  0.1003
  498UNK    F05 4479   1.689   1.931   3.737 -0.3789  0.1998 -0.2350
  498UNK    F06 4480   1.485   1.955   3.824 -0.2154 -0.2475 -0.0156
  498UNK    F07 4481   1.612   1.782   3.857  0.6628 -0.0749  0.4596
  498UNK    H08 4482   1.467   1.713   3.687  2.5597 -1.3960  0.4638
  499UNK    F00 4483   1.381   1.489   0.636 -0.7235 -0.6860  0.3363
  499UNK    C01 4484   1.275   1.522   0.709  0.6072  0.0793  0.1353
  499UNK    H02 4485   1.201   1.573   0.647 -1.4748 -2.6917  0.1196
  499UNK    C03 4486   1.284   1.528   0.840  0.2943 -0.1275 -1.0754
  499UNK    C04 4487   1.354   1.422   0.917 -0.7463  0.2155 -0.0816
  499UNK    F05 4488   1.485   1.432   0.926  0.0898  0.3191 -0.2087
  499UNK    F06 4489   1.322   1.433   1.043  0.0312  0.1524 -0.1321
  499UNK    F07 4490   1.310   1.297   0.890  0.1193 -0.6209  0.0228
  499UNK    H08 4491   1.328   1.622   0.873 -0.8761 -0.0231  0.2882
  500UNK    F00 4492   3.530   2.077   2.568  0.0538  0.2707  0.0995
  500UNK    C01 4493   3.473   1.961   2.523  0.0854  0.3994 -0.7551
  500UNK    H02 4494   3.524   1.926   2.433 -1.8060 -0.9201 -1.3796
  500UNK    C03 4495   3.350   1.930   2.561 -0.0875 -0.4336 -0.2208
  500UNK    C04 4496   3.309   1.788   2.581 -0.2295  0.1261  0.0642
  500UNK    F05 4497   3.357   1.746   2.697 -0.0811  0.0948  0.7033
  500UNK    F06 4498   3.174   1.774   2.595 -0.1403  0.1495  0.0250
  500UNK    F07 4499   3.351   1.697   2.490 -0.2240  0.2088 -0.3603
  500UNK    H08 4500   3.306   1.997   2.634  0.7925 -0.7843  0.6587
  501UNK    F00 4501   4.739   4.402   4.425  0.5293 -0.9922 -0.2539
  501UNK    C01 4502   4.769   4.356   4.549 -0.1968  0.7414  0.0821
  501UNK    H02 4503   4.854   4.289   4.563 -2.1517 -1.3266  3.5851
  501UNK    C03 4504   4.705   4.424   4.645 -0.5514 -0.2319  0.2466
  501UNK    C04 4505   4.750   4.424   4.785  0.0426 -0.6393  1.4647
  501UNK    F05 4506   4.792   4.298   4.811 -0.4155  0.1718  0.3959
  501UNK    F06 4507   4.835   4.535   4.797  0.0214 -0.2892 -0.1249
  501UNK    F07 4508   4.643   4.431   4.865 -0.3311 -0.1419  0.0474
  501UNK    H08 4509   4.621   4.486   4.618 -0.2291  0.5878  1.0432
  502UNK    F00 4510   4.299   0.102   0.461  0.3026  0.0609  0.1222
  502UNK    C01 4511   4.302   0.070   0.337 -0.3792  0.2929  0.5199
  502UNK    H02 4512   4.258   0.142   0.268 -2.6957 -0.9244  0.6388
  502UNK    C03 4513   4.380  -0.031   0.296 -0.2339  0.7176 -0.2996
  502UNK    C04 4514   4.428  -0.057   0.159 -0.0288 -0.3392  0.4853
  502UNK    F05 4515   4.565  -0.027   0.149  0.5660 -0.1636  0.1582
  502UNK    F06 4516   4.386  -0.186   0.130 -0.6433  0.0350  0.5132
  502UNK    F07 4517   4.381   0.035   0.074  0.0314 -0.5923  0.4714
  502UNK    H08 4518   4.381  -0.119   0.359  1.1022  0.7645 -0.2267
  503UNK    F00 4519   2.431   0.607   4.453  0.1530  0.2252  0.0117
  503UNK    C01 4520   2.503   0.501   4.414 -0.3310 -0.0861 -0.5835
  503UNK    H02 4521   2.448   0.408   4.401  1.0208 -0.8557 -1.0540
  503UNK    C03 4522   2.631   0.520   4.408  0.3443 -0.0479 -0.0935
  503UNK    C04 4523   2.691   0.641   4.351  0.1739  0.8260 -0.1805
  503UNK    F05 4524   2.813   0.624   4.301  0.3932 -0.3743  0.1465
  503UNK    F06 4525   2.624   0.684   4.241  0.2664  0.0232  0.3532
  503UNK    F07 4526   2.694   0.747   4.440  0.1478  0.2510 -0.2125
  503UNK    H08 4527   2.700   0.438   4.395 -0.7122 -0.9340 -0.2089
  504UNK    F00 4528   2.843   3.554   2.857  0.2739  0.3328  0.0538
  504UNK    C01 4529   2.887   3.482   2.750 -0.0053  0.0148 -0.1212
  504UNK    H02 4530   2.972   3.530   2.702  0.5843  0.9299  1.7406
  504UNK    C03 4531   2.824   3.371   2.723 -0.3869  0.0685  0.4873
  504UNK    C04 4532   2.884   3.271   2.639  0.1256  0.7059  0.6223
  504UNK    F05 4533   2.791   3.185   2.589  0.6357  0.1898 -0.6224
  504UNK    F06 4534   2.938   3.331   2.529  0.1315 -0.4079  0.5906
  504UNK    F07 4535   2.973   3.192   2.701 -0.3881 -0.2822 -0.3688
  504UNK    H08 4536   2.721   3.381   2.691 -0.2845  1.0181  0.4314
  505UNK    F00 4537   1.655   0.296   0.358  0.1031 -0.1935 -0.5315
  505UNK    C01 4538   1.599   0.397   0.424 -0.0018 -0.0405  0.6752
  505UNK    H02 4539   1.678   0.457   0.469 -1.9027  0.7997  3.1156
  505UNK    C03 4540   1.466   0.415   0.431  0.2278 -0.5605  0.7701
  505UNK    C04 4541   1.410   0.555   0.423  0.1750  1.0580 -0.0054
  505UNK    F05 4542   1.396   0.588   0.293 -0.3037  0.1105 -0.1947
  505UNK    F06 4543   1.282   0.554   0.481 -0.6880 -0.4197 -0.1002
  505UNK    F07 4544   1.489   0.643   0.490 -0.1593 -0.0747 -0.5362
  505UNK    H08 4545   1.399   0.333   0.410  1.2047 -1.1695 -0.0571
  506UNK    F00 4546   4.769   2.274   3.319  0.1145 -0.1760 -0.7013
  506UNK    C01 4547   4.826   2.386   3.367 -0.3032 -0.4439 -0.4283
  506UNK    H02 4548   4.774   2.425   3.454 -2.0604 -2.8668 -0.2958
  506UNK    C03 4549   4.945   2.423   3.322 -0.3142  0.6519 -0.0256
  506UNK    C04 4550   4.979   2.505   3.208  0.0824  0.2289  0.2391
  506UNK    F05 4551   4.974   2.636   3.239  0.2708  0.6517 -0.5216
  506UNK    F06 4552   5.104   2.489   3.147 -0.3385 -0.4247  0.0491
  506UNK    F07 4553   4.901   2.483   3.100  0.1514  0.0821  0.1827
  506UNK    H08 4554   5.030   2.384   3.377 -1.6807 -1.4737  0.7161
  507UNK    F00 4555   0.672   0.403   0.724 -0.2317 -0.0123  0.1373
  507UNK    C01 4556   0.639   0.304   0.647 -0.2917  0.3236  0.5755
  507UNK    H02 4557   0.706   0.218   0.642  0.5503  1.0328 -1.1373
  507UNK    C03 4558   0.551   0.326   0.545  0.2254 -0.4994 -0.1602
  507UNK    C04 4559   0.501   0.227   0.442 -0.2333 -0.1479  0.3815
  507UNK    F05 4560   0.577   0.118   0.411 -0.0847 -0.0453 -0.7252
  507UNK    F06 4561   0.383   0.176   0.479  0.6581  0.5650  0.0404
  507UNK    F07 4562   0.466   0.290   0.325 -0.2907  0.5462  0.1846
  507UNK    H08 4563   0.548   0.424   0.500 -0.7295  0.1464  1.2373
  508UNK    F00 4564   0.909   1.551   1.792  0.0493 -0.3363  0.5846
  508UNK    C01 4565   1.016   1.570   1.714  0.4773 -1.2076  0.5560
  508UNK    H02 4566   1.034   1.677   1.710 -1.5734 -0.8603 -1.9877
  508UNK    C03 4567   1.063   1.481   1.630  0.5338  0.4940  0.1254
  508UNK    C04 4568   1.011   1.469   1.492 -0.2506  0.5653 -0.1692
  508UNK    F05 4569   1.032   1.335   1.466  0.0338 -0.1501 -0.2153
  508UNK    F06 4570   0.878   1.496   1.485  0.3870  0.2380 -0.1536
  508UNK    F07 4571   1.074   1.556   1.400  0.3830  0.2256 -0.0167
  508UNK    H08 4572   1.169   1.461   1.628  0.2004 -1.4531 -0.4393
  509UNK    F00 4573   2.416   3.143   3.766  0.1459  0.6179 -0.0245
  509UNK    C01 4574   2.326   3.217   3.705  0.3967  0.0465 -1.1178
  509UNK    H02 4575   2.246   3.253   3.770 -1.3779 -0.6518 -2.8013
  509UNK    C03 4576   2.321   3.213   3.570 -0.5257  0.4958 -0.7090
  509UNK    C04 4577   2.259   3.308   3.478 -0.4406 -0.4206  0.0148
  509UNK    F05 4578   2.248   3.245   3.364  0.3530 -0.0118  0.0973
  509UNK    F06 4579   2.131   3.345   3.517  0.1473  0.1910 -0.1002
  509UNK    F07 4580   2.316   3.428   3.475  0.4476 -0.2720  0.2933
  509UNK    H08 4581   2.374   3.130   3.524  0.5913 -0.2766  1.8470
  510UNK    F00 4582   0.673   2.806   1.796 -0.0925  0.0516  0.3784
  510UNK    C01 4583   0.693   2.936   1.765  0.0137 -0.0614  0.6943
  510UNK    H02 4584   0.758   2.977   1.843  0.6793 -0.8987  0.5917
  510UNK    C03 4585   0.709   2.968   1.638 -0.3347 -1.0265  0.4998
  510UNK    C04 4586   0.799   3.072   1.590 -0.5532 -1.0677  0.1641
  510UNK    F05 4587   0.796   3.175   1.675 -0.2697 -0.3145 -0.1876
  510UNK    F06 4588   0.929   3.038   1.601  0.4380 -0.0170  0.2131
  510UNK    F07 4589   0.781   3.112   1.463  0.4110 -0.1452 -0.1172
  510UNK    H08 4590   0.702   2.894   1.560  1.4315  0.3144 -1.0206
  511UNK    F00 4591   0.559   2.770   2.673 -0.2207 -0.3153  0.2389
  511UNK    C01 4592   0.642   2.707   2.754  0.5613  0.7831 -0.6834
  511UNK    H02 4593   0.748   2.723   2.731  1.5048 -0.6367  2.2561
  511UNK    C03 4594   0.588   2.603   2.828  0.2081 -0.7286 -0.0633
  511UNK    C04 4595   0.641   2.531   2.945  0.2778 -0.9338 -0.5074
  511UNK    F05 4596   0.615   2.399   2.948 -0.1867 -0.5404  0.1500
  511UNK    F06 4597   0.779   2.538   2.950 -0.4051 -0.3223 -0.6572
  511UNK    F07 4598   0.601   2.582   3.066 -0.4204  0.2590  0.5454
  511UNK    H08 4599   0.512   2.543   2.779 -1.9946  1.8354 -0.0048
  512UNK    F00 4600   4.833   4.561   2.311  0.4664 -0.2969 -0.1046
  512UNK    C01 4601   4.761   4.493   2.402 -0.4958  0.5726 -0.2089
  512UNK    H02 4602   4.784   4.539   2.498  0.3329  1.6514 -0.8983
  512UNK    C03 4603   4.741   4.362   2.384 -1.0812  1.1217 -0.1815
  512UNK    C04 4604   4.664   4.271   2.474  0.9549  0.3330 -0.1331
  512UNK    F05 4605   4.703   4.147   2.471 -0.0705  0.2727 -0.4492
  512UNK    F06 4606   4.696   4.299   2.602  0.3965  0.4260  0.1874
  512UNK    F07 4607   4.529   4.275   2.458 -0.3883 -0.3231 -0.0402
  512UNK    H08 4608   4.806   4.304   2.319 -0.9843  2.7834 -1.6808
  513UNK    F00 4609   1.173   0.044   2.353  0.8340 -0.1325 -0.1109
  513UNK    C01 4610   1.279   0.020   2.433  0.5054  0.0368 -0.1347
  513UNK    H02 4611   1.358  -0.021   2.368 -0.9416 -1.8343 -0.8079
  513UNK    C03 4612   1.278   0.025   2.569 -0.6111 -0.6077 -0.2378
  513UNK    C04 4613   1.387   0.086   2.645  0.1335  0.3715 -0.4405
  513UNK    F05 4614   1.513   0.084   2.595 -0.2429  0.7817 -0.1824
  513UNK    F06 4615   1.376   0.220   2.657 -0.1512 -0.2153 -0.8875
  513UNK    F07 4616   1.388   0.015   2.762  0.0124 -0.3718 -0.1930
  513UNK    H08 4617   1.218  -0.047   2.624 -1.4812 -0.9943 -1.6344
  514UNK    F00 4618   1.313   0.274   3.878  0.1871 -0.0089 -0.3691
  514UNK    C01 4619   1.295   0.144   3.903  0.0065  0.4207 -0.4699
  514UNK    H02 4620   1.389   0.090   3.915 -0.5893 -0.6133 -0.3225
  514UNK    C03 4621   1.182   0.090   3.857 -0.3860 -0.5037 -0.5713
  514UNK    C04 4622   1.114  -0.030   3.915  0.3277 -0.9582  0.3683
  514UNK    F05 4623   1.082   0.005   4.038 -0.2136  0.1543  0.1406
  514UNK    F06 4624   0.997  -0.084   3.866 -0.4496  0.1759 -0.4581
  514UNK    F07 4625   1.193  -0.135   3.933  0.1912  0.1149 -0.1538
  514UNK    H08 4626   1.134   0.122   3.766 -0.0927 -0.6166 -0.7649
  515UNK    F00 4627   3.247   0.911   0.930 -0.5450 -0.1373  0.2514
  515UNK    C01 4628   3.299   0.820   0.845  0.1400 -0.7879  0.2391
  515UNK    H02 4629   3.402   0.801   0.875 -0.2234  1.1587  3.1584
  515UNK    C03 4630   3.219   0.771   0.752  0.0982  0.5179 -0.5726
  515UNK    C04 4631   3.077   0.759   0.780 -0.1302 -0.0404  0.8858
  515UNK    F05 4632   3.014   0.875   0.739  0.6023  0.1618  0.1533
  515UNK    F06 4633   3.021   0.660   0.712  0.4059 -0.3384  0.0100
  515UNK    F07 4634   3.049   0.735   0.913  0.1079 -0.0923 -0.2756
  515UNK    H08 4635   3.226   0.804   0.650 -1.2626 -0.7631 -1.1057
  516UNK    F00 4636   3.557   0.870   0.639 -0.2227 -0.4533 -0.9503
  516UNK    C01 4637   3.483   0.954   0.560  0.2292 -0.6699 -0.0745
  516UNK    H02 4638   3.505   0.950   0.453 -1.0156  0.6325 -0.4084
  516UNK    C03 4639   3.445   1.060   0.630 -0.2231 -0.0781 -0.4498
  516UNK    C04 4640   3.332   1.148   0.591 -0.0225  0.6475 -0.2094
  516UNK    F05 4641   3.343   1.193   0.463 -0.2359 -0.3634 -0.2611
  516UNK    F06 4642   3.216   1.077   0.579 -0.0724 -0.5626  0.1779
  516UNK    F07 4643   3.320   1.251   0.674 -0.5912  0.2099  0.5647
  516UNK    H08 4644   3.508   1.100   0.708 -1.0110 -0.7033  0.5337
  517UNK    F00 4645   4.758   0.379   3.950 -0.0511  0.0147 -0.2070
  517UNK    C01 4646   4.701   0.451   4.048 -0.0006 -0.3939  0.0416
  517UNK    H02 4647   4.763   0.461   4.137 -0.7879 -0.1362  0.5686
  517UNK    C03 4648   4.602   0.532   4.010  0.3541  0.3665  0.2248
  517UNK    C04 4649   4.566   0.648   4.089  0.0555  0.6012  0.0888
  517UNK    F05 4650   4.630   0.761   4.053  0.0739  0.3711  0.3253
  517UNK    F06 4651   4.436   0.673   4.071  0.5193  0.5307 -0.3084
  517UNK    F07 4652   4.574   0.632   4.221 -0.7903  0.0927 -0.2133
  517UNK    H08 4653   4.579   0.541   3.904  0.3007  0.4230  0.2409
  518UNK    F00 4654   3.115   1.876   3.678  0.0736 -0.3031 -0.4676
  518UNK    C01 4655   3.024   1.843   3.773 -0.7803 -0.3041 -0.2345
  518UNK    H02 4656   3.070   1.846   3.872 -2.2512 -0.1231  0.4775
  518UNK    C03 4657   2.909   1.781   3.751 -0.1232  0.1894  0.9419
  518UNK    C04 4658   2.839   1.825   3.624 -0.0126 -0.1352 -0.1524
  518UNK    F05 4659   2.910   1.770   3.520  0.8732  0.1588 -0.2076
  518UNK    F06 4660   2.717   1.766   3.640 -0.4896 -0.1078 -0.0283
  518UNK    F07 4661   2.827   1.958   3.613 -0.3159  0.0008 -0.0420
  518UNK    H08 4662   2.847   1.777   3.839 -0.6981 -1.4682  0.5087
  519UNK    F00 4663   4.378   4.287   0.620  0.2530 -0.0254  0.5485
  519UNK    C01 4664   4.488   4.274   0.543 -0.1980 -0.6387  0.1107
  519UNK    H02 4665   4.543   4.368   0.543 -0.6587 -0.3442 -1.5621
  519UNK    C03 4666   4.542   4.159   0.512  0.5236 -0.3586  0.5218
  519UNK    C04 4667   4.629   4.141   0.390 -0.4882 -0.3413 -0.1734
  519UNK    F05 4668   4.752   4.185   0.418  0.0421 -0.6320 -0.7531
  519UNK    F06 4669   4.641   4.010   0.355 -0.3003 -0.1099 -0.0035
  519UNK    F07 4670   4.587   4.207   0.281 -0.1025  0.1221 -0.1075
  519UNK    H08 4671   4.543   4.072   0.575 -2.6274 -0.5405  0.4675
  520UNK    F00 4672   4.136   4.471   3.884 -0.6974  0.1656 -0.2926
  520UNK    C01 4673   4.251   4.540   3.872 -0.0172 -0.3733 -0.0774
  520UNK    H02 4674   4.257   4.586   3.773  2.2544 -0.1616  0.0991
  520UNK    C03 4675   4.355   4.504   3.944 -0.2977 -0.7329 -0.5806
  520UNK    C04 4676   4.468   4.429   3.896 -0.7789  0.3502 -0.3452
  520UNK    F05 4677   4.549   4.389   3.999  0.1826  0.0047  0.5873
  520UNK    F06 4678   4.433   4.312   3.840  0.1606 -0.3132  0.2344
  520UNK    F07 4679   4.540   4.501   3.804  0.5138 -0.2198 -0.2490
  520UNK    H08 4680   4.346   4.512   4.051 -0.6957 -1.4100 -0.5614
  521UNK    F00 4681   0.991   0.149   4.384  0.2121  0.7357  0.5426
  521UNK    C01 4682   1.112   0.130   4.336  0.2465  0.1056 -0.3720
  521UNK    H02 4683   1.119   0.175   4.237  0.3730  0.2921 -0.2766
  521UNK    C03 4684   1.157   0.009   4.366 -0.0479  0.6481 -0.3056
  521UNK    C04 4685   1.301  -0.019   4.333  0.1353 -0.0922  0.5860
  521UNK    F05 4686   1.380   0.013   4.434 -0.1305 -0.0920 -0.2156
  521UNK    F06 4687   1.316  -0.152   4.323  0.2792 -0.1776  0.1244
  521UNK    F07 4688   1.342   0.030   4.212  0.2818 -0.5414  0.1997
  521UNK    H08 4689   1.093  -0.077   4.354  1.7574 -0.5313 -1.9657
  522UNK    F00 4690   4.365   2.453   2.136  0.2183 -0.3629  0.3117
  522UNK    C01 4691   4.412   2.465   2.017 -0.4503  0.4869  0.1713
  522UNK    H02 4692   4.334   2.453   1.942  1.0636 -0.3049 -1.3614
  522UNK    C03 4693   4.520   2.533   1.988 -0.3854 -0.6578  0.2164
  522UNK    C04 4694   4.515   2.678   2.010  0.5880  0.2923  0.2008
  522UNK    F05 4695   4.398   2.745   2.012  0.5570 -0.0985 -0.3739
  522UNK    F06 4696   4.579   2.707   2.126  0.0750  0.1615 -0.2904
  522UNK    F07 4697   4.594   2.736   1.910 -0.8587 -0.2320  0.3859
  522UNK    H08 4698   4.616   2.484   1.978  1.7202  2.9460  0.8457
  523UNK    F00 4699   1.117   1.044   3.250 -0.0339 -0.4881 -1.0741
  523UNK    C01 4700   1.032   1.111   3.175  0.4838 -0.5411 -0.5062
  523UNK    H02 4701   0.945   1.052   3.148  0.4972 -1.7969  1.9149
  523UNK    C03 4702   1.040   1.247   3.181  0.2057 -0.2104 -0.1944
  523UNK    C04 4703   0.934   1.336   3.142  0.9603 -0.4329  0.1188
  523UNK    F05 4704   0.845   1.359   3.247 -0.0405 -0.9062 -0.5308
  523UNK    F06 4705   0.978   1.460   3.103  0.2857  0.3718 -0.3593
  523UNK    F07 4706   0.872   1.280   3.035  0.2399 -0.4300  0.2629
  523UNK    H08 4707   1.136   1.289   3.210 -0.0541  1.5697 -1.7511
  524UNK    F00 4708   1.281   1.947   2.941  0.4115 -0.2360  0.3400
  524UNK    C01 4709   1.220   1.909   3.056  0.0816  0.1415  0.1628
  524UNK    H02 4710   1.166   1.815   3.043  0.1218  0.1403 -0.0063
  524UNK    C03 4711   1.248   1.974   3.166 -0.5314 -0.7094 -0.9106
  524UNK    C04 4712   1.378   2.038   3.190  0.1384  0.0115 -0.4824
  524UNK    F05 4713   1.491   1.970   3.172 -0.2563  0.1966  0.0131
  524UNK    F06 4714   1.377   2.153   3.119  0.2589 -0.3691 -0.0891
  524UNK    F07 4715   1.381   2.071   3.325  0.4684 -0.0653  0.5100
  524UNK    H08 4716   1.188   1.951   3.253  0.2940 -0.4186 -0.2550
  525UNK    F00 4717   4.178   0.644   4.610 -0.0810 -0.1031  0.6283
  525UNK    C01 4718   4.213   0.769   4.637 -0.0685  0.3862  0.8908
  525UNK    H02 4719   4.173   0.803   4.732  1.1635 -0.9484  1.9353
  525UNK    C03 4720   4.260   0.848   4.543  0.1803  0.2173 -0.0604
  525UNK    C04 4721   4.372   0.816   4.454  0.7362 -0.4333 -0.8885
  525UNK    F05 4722   4.318   0.738   4.359 -0.4716 -1.1840  0.1154
  525UNK    F06 4723   4.424   0.927   4.399  0.4308  0.1654 -0.4337
  525UNK    F07 4724   4.477   0.745   4.504 -0.2331  0.1418  0.3325
  525UNK    H08 4725   4.270   0.952   4.570 -0.1919  0.0120  0.9348
  526UNK    F00 4726   3.469   2.106   1.264 -0.3597 -0.1841 -0.2573
  526UNK    C01 4727   3.521   2.102   1.144 -0.5140  0.1733 -0.0760
  526UNK    H02 4728   3.619   2.059   1.160 -0.8258  0.6801  4.0605
  526UNK    C03 4729   3.451   2.133   1.037  0.6532  0.2663 -0.0655
  526UNK    C04 4730   3.507   2.107   0.905 -0.2455  0.3934 -0.3186
  526UNK    F05 4731   3.631   2.158   0.891 -0.1573 -0.2734 -0.2279
  526UNK    F06 4732   3.528   1.973   0.890 -0.3115  0.1473  0.4159
  526UNK    F07 4733   3.427   2.151   0.805  0.0842 -0.2444  0.0178
  526UNK    H08 4734   3.343   2.132   1.034  0.5755 -2.7236  0.6839
  527UNK    F00 4735   3.170   4.720   3.668 -0.4047  0.5070 -0.0943
  527UNK    C01 4736   3.211   4.605   3.620 -0.0858 -0.7257  0.0796
  527UNK    H02 4737   3.184   4.590   3.516 -0.2942  0.2607 -0.0225
  527UNK    C03 4738   3.249   4.517   3.706 -0.0071  0.1013  0.0061
  527UNK    C04 4739   3.359   4.426   3.686  0.4452 -0.1680 -0.8104
  527UNK    F05 4740   3.352   4.302   3.750  0.1028  0.1144 -0.0807
  527UNK    F06 4741   3.373   4.402   3.554  0.3474 -0.2902 -0.2638
  527UNK    F07 4742   3.475   4.489   3.722 -0.3231 -0.4352  0.3902
  527UNK    H08 4743   3.174   4.472   3.770 -2.7568  2.9458 -0.9590
  528UNK    F00 4744   2.036   1.917   0.474 -0.0116  0.5539  0.0208
  528UNK    C01 4745   2.170   1.914   0.496 -0.5778 -0.1490  0.1265
  528UNK    H02 4746   2.198   1.879   0.595  1.2533 -0.0972 -0.3384
  528UNK    C03 4747   2.258   1.945   0.399 -0.0567 -0.2692 -0.2450
  528UNK    C04 4748   2.253   1.890   0.261  0.3484 -0.3145 -0.0469
  528UNK    F05 4749   2.153   1.951   0.196  0.4383 -0.1710  0.3291
  528UNK    F06 4750   2.365   1.922   0.194 -0.0090  0.1719  0.0096
  528UNK    F07 4751   2.236   1.754   0.262 -0.3816  0.2267  0.6439
  528UNK    H08 4752   2.302   2.044   0.398  2.0048 -1.1329 -1.3829
  529UNK    F00 4753   2.085   3.667   0.767 -0.2892 -0.2794 -0.2460
  529UNK    C01 4754   2.070   3.533   0.749  0.3066 -0.2284  0.1593
  529UNK    H02 4755   2.165   3.481   0.763  1.0361  1.2031  0.7214
  529UNK    C03 4756   1.951   3.491   0.698 -0.4384  0.3125  0.5601
  529UNK    C04 4757   1.923   3.494   0.548  0.0250 -1.2604  0.4388
  529UNK    F05 4758   1.951   3.375   0.495  0.1688  0.5552  0.2047
  529UNK    F06 4759   1.787   3.517   0.530  0.0331  0.4783  0.5919
  529UNK    F07 4760   1.982   3.597   0.490  0.1244 -0.1771  0.5133
  529UNK    H08 4761   1.861   3.492   0.757 -1.4373 -0.4697 -0.9033
  530UNK    F00 4762   3.791   0.548   0.222 -0.0607 -0.3047  0.1951
  530UNK    C01 4763   3.795   0.675   0.267 -0.5748  0.2614 -0.0917
  530UNK    H02 4764   3.848   0.694   0.360  0.8361  0.8177 -0.9803
  530UNK    C03 4765   3.697   0.754   0.226 -0.5026  0.1468  0.6140
  530UNK    C04 4766   3.732   0.880   0.170  0.0502 -0.4347 -0.0039
  530UNK    F05 4767   3.626   0.954   0.145 -0.1008 -0.3841  0.3748
  530UNK    F06 4768   3.800   0.947   0.267 -0.1189  0.1169 -1.0688
  530UNK    F07 4769   3.812   0.888   0.063  0.1798 -0.0738  0.5919
  530UNK    H08 4770   3.602   0.717   0.191 -0.0184 -0.7920  0.2699
  531UNK    F00 4771   1.373   2.618   4.716  0.0710  0.2551  0.5449
  531UNK    C01 4772   1.256   2.655   4.659 -0.4182 -0.0732 -0.5505
  531UNK    H02 4773   1.176   2.625   4.727  1.8086 -1.4858  1.6077
  531UNK    C03 4774   1.241   2.743   4.556  0.0572  0.4784 -0.0874
  531UNK    C04 4775   1.107   2.784   4.523 -0.0101  0.4392  0.4024
  531UNK    F05 4776   1.071   2.878   4.613 -0.0560 -0.0218  0.5030
  531UNK    F06 4777   1.086   2.844   4.405 -0.1201 -0.1062 -0.1506
  531UNK    F07 4778   1.020   2.685   4.526  0.0508  0.1625 -0.4509
  531UNK    H08 4779   1.303   2.741   4.467 -1.5018 -0.1848 -1.2027
  532UNK    F00 4780   1.715   2.688   3.865  0.0879  0.1520 -0.0731
  532UNK    C01 4781   1.728   2.777   3.772 -0.2093  0.6914  0.8466
  532UNK    H02 4782   1.635   2.834   3.774  0.0229  1.0792  0.6113
  532UNK    C03 4783   1.844   2.793   3.712 -0.3351 -0.4473 -0.2757
  532UNK    C04 4784   1.863   2.895   3.604  0.3767 -0.1059  0.1830
  532UNK    F05 4785   1.965   2.860   3.529 -0.0431 -0.3442  0.2462
  532UNK    F06 4786   1.756   2.913   3.516  0.6122 -0.8389 -0.3396
  532UNK    F07 4787   1.896   3.014   3.663 -0.2794  0.0337 -0.3219
  532UNK    H08 4788   1.935   2.768   3.764  0.4949 -1.0526 -1.9458
  533UNK    F00 4789   1.198   2.387   3.640 -0.0842 -0.2566  0.5912
  533UNK    C01 4790   1.181   2.283   3.561 -0.4820  0.3021  0.0651
  533UNK    H02 4791   1.272   2.256   3.509 -0.4538  0.6782 -0.0870
  533UNK    C03 4792   1.087   2.199   3.608  0.1295 -0.1489  0.2641
  533UNK    C04 4793   1.089   2.052   3.589 -0.1807 -0.6362  0.0046
  533UNK    F05 4794   1.101   2.019   3.459  0.0407 -0.1062  0.0185
  533UNK    F06 4795   1.195   2.000   3.654  0.0260  0.1670  0.1627
  533UNK    F07 4796   0.978   1.997   3.643 -0.3936  0.1029 -0.0039
  533UNK    H08 4797   0.986   2.237   3.599  0.8694  1.4320 -2.7366
  534UNK    F00 4798   3.427   4.134   1.796  0.0955  0.0681  0.1646
  534UNK    C01 4799   3.375   4.172   1.680 -0.2597  0.2894  0.5941
  534UNK    H02 4800   3.448   4.229   1.623 -1.4932  2.3346  0.9542
  534UNK    C03 4801   3.270   4.111   1.637  0.2729  0.0216  0.4849
  534UNK    C04 4802   3.247   4.089   1.493 -0.4399 -0.2673  0.1517
  534UNK    F05 4803   3.256   4.193   1.410  0.2380 -0.1942 -0.2828
  534UNK    F06 4804   3.342   4.007   1.438  0.1907 -0.1792 -0.1978
  534UNK    F07 4805   3.131   4.036   1.463 -0.3836  0.2553 -0.4361
  534UNK    H08 4806   3.241   4.024   1.693 -0.3471  0.1019  0.2952
  535UNK    F00 4807   0.164   4.230   2.498 -0.2124 -0.1255  0.1125
  535UNK    C01 4808   0.204   4.103   2.467 -0.3561  0.7094 -0.0231
  535UNK    H02 4809   0.181   4.090   2.362 -1.2266  2.7703 -0.1316
  535UNK    C03 4810   0.310   4.056   2.531  0.0333  0.0521 -0.0108
  535UNK    C04 4811   0.452   4.088   2.506 -0.1271  0.5898 -0.4258
  535UNK    F05 4812   0.478   4.081   2.370 -0.1329  0.1856 -0.5388
  535UNK    F06 4813   0.490   4.215   2.550  0.1053 -0.0809  0.5692
  535UNK    F07 4814   0.528   3.993   2.575 -0.4962 -0.4709 -0.4211
  535UNK    H08 4815   0.290   4.012   2.627  0.8979  2.8779  1.6119
  536UNK    F00 4816   1.953   2.313   0.228 -0.2959 -0.1822  0.5348
  536UNK    C01 4817   1.847   2.246   0.190  0.4044 -0.2392 -0.8184
  536UNK    H02 4818   1.768   2.319   0.173 -0.0775  0.1408  2.3960
  536UNK    C03 4819   1.858   2.117   0.165  0.5973 -0.0308 -0.0682
  536UNK    C04 4820   1.761   2.052   0.074 -0.1549  0.2996  0.0278
  536UNK    F05 4821   1.738   1.929   0.121  0.0832  0.6903 -0.3109
  536UNK    F06 4822   1.645   2.111   0.081  0.1705  0.5992  0.7901
  536UNK    F07 4823   1.798   2.051  -0.054 -0.4026  0.4884  0.6681
  536UNK    H08 4824   1.944   2.061   0.197 -0.2465  0.1265  2.7118
  537UNK    F00 4825   4.808   1.061   2.001 -0.1950 -0.3053 -0.0833
  537UNK    C01 4826   4.746   1.136   1.914 -0.6512 -0.1165  0.3216
  537UNK    H02 4827   4.820   1.194   1.859 -2.0309 -1.4218 -3.1980
  537UNK    C03 4828   4.628   1.196   1.943  0.0356 -0.8379 -0.3263
  537UNK    C04 4829   4.613   1.340   1.963 -0.3623  0.3422 -0.5116
  537UNK    F05 4830   4.605   1.416   1.855  0.2284 -0.1820  0.6618
  537UNK    F06 4831   4.505   1.369   2.037  0.0418 -0.6843  0.1817
  537UNK    F07 4832   4.726   1.387   2.025  0.0144  0.5090 -0.4106
  537UNK    H08 4833   4.542   1.142   1.979 -1.6882  1.6903 -0.3674
  538UNK    F00 4834   4.039   1.862   4.499 -0.7961  0.2204  0.5334
  538UNK    C01 4835   4.137   1.815   4.415  0.6037  1.4077  0.0547
  538UNK    H02 4836   4.232   1.869   4.423  1.6447 -0.2162 -0.7890
  538UNK    C03 4837   4.118   1.685   4.377 -0.4536  0.0047 -0.2877
  538UNK    C04 4838   4.225   1.584   4.347 -0.5684  0.6617 -0.0940
  538UNK    F05 4839   4.310   1.635   4.260 -0.1018  0.8019 -0.0367
  538UNK    F06 4840   4.287   1.531   4.457 -0.6434 -0.1241 -0.0089
  538UNK    F07 4841   4.167   1.466   4.303 -0.3418  0.5086  0.2811
  538UNK    H08 4842   4.038   1.671   4.305  0.0671 -0.3796 -0.8041
  539UNK    F00 4843   1.566   0.267   1.395  0.0082 -0.3029 -0.1115
  539UNK    C01 4844   1.636   0.354   1.465 -0.3453  0.2455 -0.6563
  539UNK    H02 4845   1.648   0.449   1.414  0.5231  1.1880  1.1847
  539UNK    C03 4846   1.646   0.339   1.596 -0.3514  0.1183  0.5000
  539UNK    C04 4847   1.671   0.444   1.693 -0.1849  0.1846 -0.4344
  539UNK    F05 4848   1.761   0.532   1.651  0.3289  0.1209 -0.3594
  539UNK    F06 4849   1.558   0.512   1.722 -0.5644 -0.0993  0.1125
  539UNK    F07 4850   1.727   0.397   1.807 -0.0914 -0.7680  0.7223
  539UNK    H08 4851   1.671   0.241   1.635 -0.8600 -0.5599 -0.8406
  540UNK    F00 4852   2.288   0.052   0.486 -0.1266 -0.3835  0.0992
  540UNK    C01 4853   2.223  -0.029   0.567 -0.2185  0.2801  0.1559
  540UNK    H02 4854   2.136   0.021   0.608  0.4331 -0.2685  2.3743
  540UNK    C03 4855   2.263  -0.146   0.615 -0.0494  0.6957 -0.1292
  540UNK    C04 4856   2.176  -0.230   0.700  0.3606  0.0894 -0.1485
  540UNK    F05 4857   2.233  -0.342   0.737 -0.0753 -0.1988 -0.0706
  540UNK    F06 4858   2.140  -0.161   0.814  0.4770 -0.2747  0.2431
  540UNK    F07 4859   2.068  -0.248   0.624  0.1239  0.0661 -0.3886
  540UNK    H08 4860   2.365  -0.155   0.649 -0.5014 -3.2408  0.6793
  541UNK    F00 4861   1.945   1.133   2.820 -1.1143  0.7836  0.0514
  541UNK    C01 4862   1.919   1.011   2.764  0.2028 -0.1126  0.2487
  541UNK    H02 4863   1.909   0.927   2.833  1.1813 -0.6434 -0.2310
  541UNK    C03 4864   1.924   1.009   2.628  0.2466 -0.3493 -0.4984
  541UNK    C04 4865   1.833   0.913   2.558  0.1180 -0.6820 -0.3207
  541UNK    F05 4866   1.832   0.791   2.623 -0.6383 -0.1565 -0.3829
  541UNK    F06 4867   1.700   0.947   2.551  0.6461 -0.2575 -0.0885
  541UNK    F07 4868   1.872   0.868   2.443  0.7571  0.4282  0.1747
  541UNK    H08 4869   1.964   1.088   2.567 -0.6925  0.1426 -0.4919
  542UNK    F00 4870   0.106   2.111   3.196 -0.3114  0.0308 -0.7241
  542UNK    C01 4871   0.066   2.116   3.072  0.2926 -0.0294 -1.2315
  542UNK    H02 4872  -0.006   2.197   3.057 -0.7043 -0.6534 -0.0018
  542UNK    C03 4873   0.167   2.097   2.988 -0.8339 -0.4267  0.6063
  542UNK    C04 4874   0.171   2.177   2.859 -0.3060 -0.3859 -0.1439
  542UNK    F05 4875   0.220   2.107   2.756 -0.1404 -0.0733 -0.3259
  542UNK    F06 4876   0.045   2.203   2.822 -0.2208 -0.1437 -0.3160
  542UNK    F07 4877   0.249   2.289   2.874  0.0063 -0.0659  0.0267
  542UNK    H08 4878   0.202   1.996   2.968  0.3226  0.1722 -0.5547
  543UNK    F00 4879   0.274   2.173   0.183  0.0247  0.1604 -0.5133
  543UNK    C01 4880   0.171   2.248   0.235 -0.6790  0.4272 -0.0584
  543UNK    H02 4881   0.070   2.209   0.220 -0.4906  0.1539 -0.6442
  543UNK    C03 4882   0.203   2.345   0.319 -0.0946 -0.4017  0.3576
  543UNK    C04 4883   0.160   2.488   0.307 -0.5688 -0.0436  0.2973
  543UNK    F05 4884   0.174   2.532   0.179 -0.6256  0.1476  0.1914
  543UNK    F06 4885   0.031   2.506   0.338 -0.3497 -0.5053  0.2269
  543UNK    F07 4886   0.223   2.572   0.392 -0.1910  0.1851 -0.4561
  543UNK    H08 4887   0.210   2.317   0.423  2.7419 -0.5559  0.1931
  544UNK    F00 4888   3.798   0.640   2.269 -0.4306 -0.0436  0.2753
  544UNK    C01 4889   3.891   0.572   2.197  0.4276 -0.0550 -0.8763
  544UNK    H02 4890   3.991   0.605   2.226 -0.4851  1.5698  0.5863
  544UNK    C03 4891   3.850   0.464   2.130  0.4994 -0.1614 -0.5057
  544UNK    C04 4892   3.937   0.367   2.060  0.8515  0.0608 -0.0526
  544UNK    F05 4893   4.046   0.415   1.997  0.1354 -0.1515  0.3604
  544UNK    F06 4894   3.985   0.275   2.144 -0.1454 -0.5704  0.3288
  544UNK    F07 4895   3.854   0.303   1.970  0.0765 -0.3343  0.1028
  544UNK    H08 4896   3.757   0.417   2.160  0.3395  0.1134 -0.5689
  545UNK    F00 4897   0.866   3.341   3.098 -0.2778 -0.3101 -0.2711
  545UNK    C01 4898   0.910   3.423   3.010 -0.5755  0.2065  1.1369
  545UNK    H02 4899   0.995   3.384   2.954  0.5872  4.0042 -0.0767
  545UNK    C03 4900   0.852   3.537   2.993  0.5049 -0.2009  0.4345
  545UNK    C04 4901   0.882   3.644   2.895 -0.0221  0.0192  0.5220
  545UNK    F05 4902   0.879   3.761   2.955 -0.4985 -0.1050  0.0862
  545UNK    F06 4903   1.008   3.633   2.845 -0.4271 -0.3432  0.2723
  545UNK    F07 4904   0.788   3.664   2.802 -0.0094 -0.0546  0.3348
  545UNK    H08 4905   0.804   3.575   3.082 -0.2663  0.6754 -0.3304
  546UNK    F00 4906   1.839   4.540   1.770  0.2938 -0.3601  0.3761
  546UNK    C01 4907   1.758   4.594   1.682  0.1422  0.1596  0.4533
  546UNK    H02 4908   1.770   4.535   1.592  1.7417 -0.6088  1.1199
  546UNK    C03 4909   1.743   4.724   1.675  0.7605 -0.1527 -0.6462
  546UNK    C04 4910   1.841   4.812   1.623  0.1059 -0.3167  0.1274
  546UNK    F05 4911   1.858   4.913   1.711  0.1317  0.4502 -0.0050
  546UNK    F06 4912   1.960   4.753   1.600 -0.2361  0.0637 -0.2705
  546UNK    F07 4913   1.803   4.866   1.501  0.2985 -0.1102 -0.2389
  546UNK    H08 4914   1.639   4.752   1.671  0.3309 -1.4020  0.9651
  547UNK    F00 4915   3.945   1.740   0.563 -0.5488 -0.0536  0.4753
  547UNK    C01 4916   3.930   1.699   0.433 -0.0683 -0.8416  0.1135
  547UNK    H02 4917   3.891   1.779   0.370 -1.4529 -0.8798  0.8728
  547UNK    C03 4918   3.956   1.576   0.403 -0.7114 -0.3025 -0.6197
  547UNK    C04 4919   3.982   1.511   0.273  0.8503  1.0113  0.2074
  547UNK    F05 4920   3.924   1.387   0.278 -0.5320  1.2162 -0.0239
  547UNK    F06 4921   3.925   1.560   0.165  0.1688 -0.0857  0.2310
  547UNK    F07 4922   4.115   1.488   0.248 -0.4426  0.3028 -0.3974
  547UNK    H08 4923   3.926   1.504   0.479  0.3155 -0.2632 -0.1598
  548UNK    F00 4924   3.315   3.438   2.805 -0.0201  0.0818 -0.3115
  548UNK    C01 4925   3.322   3.313   2.846 -0.3696 -0.3515 -0.6904
  548UNK    H02 4926   3.426   3.283   2.834 -0.2863  0.0269 -0.9385
  548UNK    C03 4927   3.224   3.247   2.904  0.8375 -0.2444 -0.4508
  548UNK    C04 4928   3.144   3.304   3.012 -0.1182 -0.0945 -0.5179
  548UNK    F05 4929   3.042   3.376   2.963  0.1751  0.2103  0.5166
  548UNK    F06 4930   3.096   3.200   3.088  0.2551 -0.5034 -1.0173
  548UNK    F07 4931   3.217   3.385   3.096 -0.3140 -0.0878 -0.1481
  548UNK    H08 4932   3.196   3.147   2.875  1.5900 -0.4430 -0.5050
  549UNK    F00 4933   4.171   3.231   2.154  0.4157 -0.0280  0.3124
  549UNK    C01 4934   4.162   3.158   2.042 -0.5131  0.4964 -0.1920
  549UNK    H02 4935   4.190   3.055   2.059 -0.6919  0.6180  0.9351
  549UNK    C03 4936   4.124   3.221   1.935 -0.4210 -0.0719  0.2157
  549UNK    C04 4937   4.048   3.174   1.818  0.1788 -0.0146 -0.3647
  549UNK    F05 4938   4.048   3.250   1.706 -0.7854 -0.6060  0.1381
  549UNK    F06 4939   4.097   3.050   1.788  0.5425  0.2789 -0.6248
  549UNK    F07 4940   3.923   3.158   1.862 -0.1712 -0.8387  0.4618
  549UNK    H08 4941   4.152   3.325   1.926 -1.1118  0.0710 -0.4190
  550UNK    F00 4942   3.711   4.244   3.681  0.1833  0.2924 -0.3118
  550UNK    C01 4943   3.631   4.149   3.738  0.0516  0.1636 -0.2888
  550UNK    H02 4944   3.548   4.127   3.672 -0.1345  0.7785 -0.2653
  550UNK    C03 4945   3.699   4.069   3.820 -0.2353 -0.5438 -0.2669
  550UNK    C04 4946   3.666   3.928   3.841  0.1422  0.0976 -0.3474
  550UNK    F05 4947   3.538   3.893   3.844 -0.1643  0.4947 -0.0858
  550UNK    F06 4948   3.722   3.839   3.751  0.1815 -0.1846  0.6524
  550UNK    F07 4949   3.715   3.883   3.962 -0.2117 -0.4876 -0.8362
  550UNK    H08 4950   3.735   4.113   3.912 -0.3167 -0.3669 -0.3178
  551UNK    F00 4951   2.552   0.688   3.120 -0.0566 -0.1993  0.0511
  551UNK    C01 4952   2.650   0.598   3.158 -0.4471  0.0521  0.7711
  551UNK    H02 4953   2.692   0.544   3.073  1.1682  0.4661  1.2805
  551UNK    C03 4954   2.643   0.569   3.286 -0.4179 -0.0317  0.5239
  551UNK    C04 4955   2.570   0.452   3.333  0.2785 -0.6298  0.1005
  551UNK    F05 4956   2.505   0.392   3.227 -0.0084 -0.3122  0.5372
  551UNK    F06 4957   2.656   0.369   3.391  0.1047  0.0194  0.5146
  551UNK    F07 4958   2.489   0.484   3.436  0.3058 -0.4322 -0.1065
  551UNK    H08 4959   2.735   0.586   3.339  1.0426 -1.6754 -1.3418
  552UNK    F00 4960   3.933   4.589   4.397 -0.5905 -0.1190 -0.4119
  552UNK    C01 4961   4.015   4.578   4.500  0.2591 -0.3281  0.2495
  552UNK    H02 4962   4.038   4.472   4.503 -2.2684 -0.9112  1.0190
  552UNK    C03 4963   4.103   4.678   4.514 -0.0783  0.7211  0.5542
  552UNK    C04 4964   4.062   4.809   4.575  0.0881 -0.8721  0.2039
  552UNK    F05 4965   3.932   4.809   4.609  0.4324  0.3524 -0.5665
  552UNK    F06 4966   4.142   4.816   4.688 -0.1584  0.3801  0.1572
  552UNK    F07 4967   4.076   4.914   4.484 -0.2344 -0.1932 -0.5380
  552UNK    H08 4968   4.209   4.656   4.514 -0.5140 -1.8024 -1.8046
  553UNK    F00 4969   3.758   3.218   0.411 -0.1884 -0.4528  0.7668
  553UNK    C01 4970   3.670   3.115   0.402 -0.5224  0.2857 -0.5828
  553UNK    H02 4971   3.573   3.153   0.367 -1.4811 -2.0540 -0.6262
  553UNK    C03 4972   3.690   3.000   0.461  0.6903  0.1060 -0.2021
  553UNK    C04 4973   3.671   2.863   0.402 -0.1878 -0.4832 -0.5124
  553UNK    F05 4974   3.578   2.863   0.300  0.9123  0.2115 -0.3462
  553UNK    F06 4975   3.791   2.821   0.347 -0.2219 -0.7487 -0.2268
  553UNK    F07 4976   3.630   2.785   0.510  0.0486  0.4166  0.1440
  553UNK    H08 4977   3.737   2.993   0.558  0.2182 -3.1138 -0.0894
  554UNK    F00 4978   3.228   0.896   1.844  0.0474  0.2652 -0.2788
  554UNK    C01 4979   3.172   0.874   1.958 -0.7078 -0.1100  0.1305
  554UNK    H02 4980   3.198   0.952   2.029  1.8361 -0.4784 -0.3042
  554UNK    C03 4981   3.065   0.796   1.969  0.5631  0.5589 -0.3915
  554UNK    C04 4982   3.078   0.647   1.982  0.4832 -0.3771  0.7031
  554UNK    F05 4983   2.958   0.581   1.965 -0.6361 -0.2205  0.4074
  554UNK    F06 4984   3.153   0.587   1.883 -0.1924  0.4069 -0.4597
  554UNK    F07 4985   3.140   0.591   2.092 -0.5728 -0.2039 -0.3532
  554UNK    H08 4986   2.978   0.815   1.908 -1.2713 -0.8573  1.6285
  555UNK    F00 4987   0.867   2.040   0.296  0.3775 -0.7779 -0.1930
  555UNK    C01 4988   0.878   2.159   0.352 -0.5030 -0.0497 -0.0567
  555UNK    H02 4989   0.965   2.216   0.320 -1.8852  2.3418  0.2037
  555UNK    C03 4990   0.789   2.211   0.430  0.6471 -0.1533  0.9499
  555UNK    C04 4991   0.654   2.230   0.367 -0.2030 -0.3814  0.2995
  555UNK    F05 4992   0.585   2.320   0.440 -0.0617  0.1094 -0.2378
  555UNK    F06 4993   0.667   2.281   0.236  0.5534  0.5106 -0.7301
  555UNK    F07 4994   0.590   2.112   0.366 -0.2865 -0.2183 -0.6586
  555UNK    H08 4995   0.786   2.168   0.529  0.0776 -1.2522  0.4641
  556UNK    F00 4996   1.276   4.216   2.803  0.2114 -0.8674 -0.6020
  556UNK    C01 4997   1.297   4.287   2.917 -0.4703  0.5142 -0.3351
  556UNK    H02 4998   1.396   4.328   2.899  0.1311 -2.0763 -4.2529
  556UNK    C03 4999   1.226   4.279   3.029  0.3268  0.0582 -0.0157
  556UNK    C04 5000   1.085   4.241   3.045  0.4744 -0.0400  0.0173
  556UNK    F05 5001   0.991   4.316   2.979  0.7049 -0.1871  0.4750
  556UNK    F06 5002   1.061   4.119   2.987  0.0855 -0.8088  0.0897
  556UNK    F07 5003   1.054   4.252   3.175 -0.1571  0.0942  0.1631
  556UNK    H08 5004   1.280   4.258   3.121 -0.0782 -0.3328  0.1381
  557UNK    F00 5005   4.152   4.008   0.035  0.3431  0.4232  0.2410
  557UNK    C01 5006   4.113   3.880   0.030  0.7667  0.6807  0.0638
  557UNK    H02 5007   4.191   3.810   0.059  1.7196  1.9688  0.7336
  557UNK    C03 5008   3.980   3.855   0.022  0.0690  0.7819 -0.0809
  557UNK    C04 5009   3.915   3.724   0.008  0.4463 -0.3000 -0.0642
  557UNK    F05 5010   3.917   3.657   0.125 -0.0288 -0.3595 -0.0282
  557UNK    F06 5011   3.786   3.746  -0.021  0.3351  0.1802 -0.1058
  557UNK    F07 5012   3.965   3.642  -0.085 -0.6165  0.2975 -0.0036
  557UNK    H08 5013   3.916   3.942   0.028 -0.0237  0.6303  1.3401
  558UNK    F00 5014   3.575   4.407   1.775 -1.0639 -0.3639 -0.0601
  558UNK    C01 5015   3.492   4.489   1.842 -0.1481 -0.2439  0.5587
  558UNK    H02 5016   3.418   4.431   1.897 -2.2077  1.6371 -0.0897
  558UNK    C03 5017   3.467   4.603   1.791  0.1456 -0.5018 -0.0719
  558UNK    C04 5018   3.403   4.718   1.863  0.1859  0.0188  0.3158
  558UNK    F05 5019   3.342   4.803   1.780 -0.0634 -0.1367  0.3465
  558UNK    F06 5020   3.330   4.674   1.967 -0.0501 -0.1014 -0.1354
  558UNK    F07 5021   3.489   4.798   1.930  0.1392  0.2369 -0.4003
  558UNK    H08 5022   3.498   4.622   1.689  0.9852  0.3987  0.3357
  559UNK    F00 5023   2.550   2.974   1.863  0.3519 -0.3198  0.2206
  559UNK    C01 5024   2.628   2.897   1.947  0.1721 -0.5462 -0.0943
  559UNK    H02 5025   2.596   2.922   2.048  0.4894  0.9450 -0.3372
  559UNK    C03 5026   2.721   2.812   1.903 -0.4065 -0.0709  0.8271
  559UNK    C04 5027   2.855   2.857   1.880  0.1068  0.7896  0.7362
  559UNK    F05 5028   2.877   2.961   1.798 -0.4387  0.3545 -0.0898
  559UNK    F06 5029   2.928   2.883   1.995  0.0549  0.3605 -0.7315
  559UNK    F07 5030   2.918   2.752   1.822  0.1647  0.0825 -0.2778
  559UNK    H08 5031   2.690   2.741   1.828 -1.3950 -0.5931  1.6961
  560UNK    F00 5032   2.715   0.761   1.860  0.2199 -0.3624 -0.0832
  560UNK    C01 5033   2.743   0.705   1.738 -0.6912  0.7363  0.1736
  560UNK    H02 5034   2.818   0.758   1.679 -0.9914  0.5857 -0.3438
  560UNK    C03 5035   2.695   0.584   1.708 -0.0483  0.3223 -0.2480
  560UNK    C04 5036   2.740   0.510   1.595  0.5540  0.1539  0.2211
  560UNK    F05 5037   2.667   0.400   1.568  0.6368 -0.0483  0.1879
  560UNK    F06 5038   2.751   0.572   1.478  0.4953 -0.1489  0.1795
  560UNK    F07 5039   2.863   0.452   1.630  0.3444 -0.6306 -0.4651
  560UNK    H08 5040   2.650   0.525   1.787 -2.6814 -0.5775 -2.2816
  561UNK    F00 5041   3.505   3.195   4.245  0.4735  0.4427 -0.5112
  561UNK    C01 5042   3.596   3.212   4.338 -0.3009 -0.8667 -0.8642
  561UNK    H02 5043   3.576   3.148   4.425  0.7631 -0.5565 -0.3748
  561UNK    C03 5044   3.678   3.320   4.329  0.1917 -0.1422  0.2025
  561UNK    C04 5045   3.750   3.349   4.206 -0.3438  0.9217 -0.0811
  561UNK    F05 5046   3.663   3.419   4.128 -0.5778  0.4026 -0.7026
  561UNK    F06 5047   3.844   3.443   4.230 -0.0662 -0.0366  0.0230
  561UNK    F07 5048   3.801   3.240   4.140  0.0276 -0.3048  0.2561
  561UNK    H08 5049   3.665   3.406   4.393  0.6717  1.3232 -1.5782
  562UNK    F00 5050   0.549   3.646   0.994 -0.1733  0.3016 -0.0517
  562UNK    C01 5051   0.518   3.642   0.865 -0.9441  0.3431  0.3699
  562UNK    H02 5052   0.466   3.734   0.836  2.3221  2.9787  2.1679
  562UNK    C03 5053   0.552   3.524   0.801  0.1711 -0.9515 -0.0704
  562UNK    C04 5054   0.568   3.517   0.654 -0.1827 -0.2822  0.2548
  562UNK    F05 5055   0.473   3.582   0.585  0.2134 -0.5273 -0.1592
  562UNK    F06 5056   0.688   3.561   0.612 -0.0702  0.0626 -0.3456
  562UNK    F07 5057   0.548   3.385   0.631 -0.2434 -0.0883  0.3057
  562UNK    H08 5058   0.529   3.430   0.850 -0.1365 -0.3233  1.0367
  563UNK    F00 5059   1.601   0.916   0.916  0.4286 -0.6200  0.1789
  563UNK    C01 5060   1.502   0.968   0.843 -0.3843 -0.2860 -0.5711
  563UNK    H02 5061   1.534   1.061   0.795  0.5980 -0.4643 -0.2844
  563UNK    C03 5062   1.415   0.881   0.783  0.2771 -0.2057  0.2453
  563UNK    C04 5063   1.284   0.939   0.757 -0.4980  0.1194 -0.0585
  563UNK    F05 5064   1.238   0.984   0.869 -0.2973 -0.3385 -0.6382
  563UNK    F06 5065   1.285   1.050   0.682 -0.0953 -0.5628  0.1172
  563UNK    F07 5066   1.195   0.853   0.703 -0.4242  0.4791 -0.1036
  563UNK    H08 5067   1.444   0.795   0.725 -0.1804 -1.3528  1.6697
  564UNK    F00 5068   2.748   0.059   3.842  0.1283 -0.3355 -0.4106
  564UNK    C01 5069   2.780  -0.012   3.735 -0.6072  0.1484 -0.3591
  564UNK    H02 5070   2.704  -0.083   3.702 -0.9393  0.7901 -0.9959
  564UNK    C03 5071   2.877   0.010   3.655 -0.7057 -0.0745 -0.4500
  564UNK    C04 5072   2.895  -0.046   3.527 -0.5813  0.5515 -0.3883
  564UNK    F05 5073   2.808  -0.020   3.430  0.2342 -0.5301  0.2560
  564UNK    F06 5074   3.012  -0.013   3.465  0.2911  0.1695  0.0598
  564UNK    F07 5075   2.890  -0.181   3.538 -0.4763  0.6072  0.1740
  564UNK    H08 5076   2.925   0.107   3.660  0.1406 -0.5366  2.1689
  565UNK    F00 5077   1.528   1.966   4.348  0.4440 -0.5447 -0.8037
  565UNK    C01 5078   1.446   1.994   4.451  0.2772  0.2951 -0.3185
  565UNK    H02 5079   1.348   1.953   4.428  0.0535  0.9420 -0.5258
  565UNK    C03 5080   1.468   2.088   4.537  0.1252 -0.2495  0.7568
  565UNK    C04 5081   1.433   2.226   4.505 -0.2864 -0.0950  0.5195
  565UNK    F05 5082   1.301   2.249   4.529 -0.2940  0.3150 -0.5014
  565UNK    F06 5083   1.508   2.320   4.565  0.5386 -0.1981  0.2383
  565UNK    F07 5084   1.460   2.247   4.371  0.3158  0.1822  0.1357
  565UNK    H08 5085   1.513   2.070   4.634  3.1716  0.8111 -0.3338
  566UNK    F00 5086   4.817   0.972   2.552  0.2498 -0.2523 -0.2749
  566UNK    C01 5087   4.727   0.963   2.452  0.2877 -1.0040 -1.4169
  566UNK    H02 5088   4.742   1.042   2.378 -1.8643  2.8967  1.8634
  566UNK    C03 5089   4.654   0.857   2.431  0.5215  0.1612 -0.7958
  566UNK    C04 5090   4.561   0.841   2.322 -0.2646  0.3362  0.5597
  566UNK    F05 5091   4.625   0.886   2.207  0.5667  0.2583 -0.2132
  566UNK    F06 5092   4.525   0.713   2.312  0.0096  0.1122 -0.5194
  566UNK    F07 5093   4.461   0.928   2.339 -0.2601  0.5081  0.2157
  566UNK    H08 5094   4.688   0.761   2.466  1.2657 -1.2109 -4.8030
  567UNK    F00 5095   2.519   1.116   3.019  0.2945  0.2089 -0.3088
  567UNK    C01 5096   2.571   1.236   3.002 -0.3034 -0.4026 -0.2830
  567UNK    H02 5097   2.679   1.225   3.015 -0.4903 -0.3045  1.7954
  567UNK    C03 5098   2.498   1.338   2.963  0.1997  0.4118 -0.4218
  567UNK    C04 5099   2.536   1.472   2.923 -0.7352  0.7859  0.2428
  567UNK    F05 5100   2.618   1.490   2.821  0.2387  0.2314  0.1234
  567UNK    F06 5101   2.426   1.537   2.887  0.4041  0.1513 -0.1781
  567UNK    F07 5102   2.585   1.539   3.033  0.6935 -0.2023 -0.3602
  567UNK    H08 5103   2.393   1.329   2.941  0.0874  0.3264  0.1302
  568UNK    F00 5104   1.611   1.999   1.765  0.2917 -0.1667 -0.3557
  568UNK    C01 5105   1.550   2.069   1.665  0.1280  0.0032 -0.2902
  568UNK    H02 5106   1.446   2.039   1.661  0.0720 -0.1338  1.5047
  568UNK    C03 5107   1.610   2.182   1.627 -0.1363  0.2736  0.2054
  568UNK    C04 5108   1.547   2.294   1.569 -0.1748 -1.0374  0.1870
  568UNK    F05 5109   1.475   2.361   1.663 -0.6129  0.7893  0.4755
  568UNK    F06 5110   1.638   2.384   1.510  0.4159 -0.3874 -0.3812
  568UNK    F07 5111   1.458   2.257   1.472  0.0146 -0.2485  0.0324
  568UNK    H08 5112   1.698   2.215   1.679 -0.3571  0.3014  0.5652
  569UNK    F00 5113   0.994   3.703   1.237 -0.0171 -0.5916 -0.2178
  569UNK    C01 5114   0.876   3.741   1.287 -0.2935  0.3117 -0.5196
  569UNK    H02 5115   0.878   3.743   1.396 -0.4695  2.5247 -0.5119
  569UNK    C03 5116   0.799   3.809   1.208 -0.2253  0.5314 -0.4129
  569UNK    C04 5117   0.691   3.900   1.262  0.3067  0.3960 -0.0404
  569UNK    F05 5118   0.572   3.872   1.200  0.1601 -0.0721 -0.0267
  569UNK    F06 5119   0.681   3.895   1.405  0.2525 -0.3751  0.5757
  569UNK    F07 5120   0.740   4.018   1.226  0.5726  0.0352 -0.5890
  569UNK    H08 5121   0.770   3.768   1.113 -0.3096  1.8398 -0.9686
  570UNK    F00 5122   1.139   2.655   3.274 -0.2824 -0.2733 -0.6650
  570UNK    C01 5123   1.248   2.616   3.341 -0.0361 -0.2444 -0.1854
  570UNK    H02 5124   1.238   2.508   3.348  0.5256 -0.2528  0.6081
  570UNK    C03 5125   1.317   2.696   3.420 -0.5991 -0.0962 -0.0931
  570UNK    C04 5126   1.429   2.634   3.496  0.0441 -0.0894  0.1780
  570UNK    F05 5127   1.425   2.694   3.613  0.3953  0.4528  0.1920
  570UNK    F06 5128   1.429   2.500   3.520 -0.0616 -0.3027 -0.0154
  570UNK    F07 5129   1.554   2.666   3.454 -0.4387  0.0944  0.5138
  570UNK    H08 5130   1.276   2.781   3.472 -0.7332  0.5112 -1.1529
  571UNK    F00 5131   2.606   3.853   1.944 -0.2525  0.6061 -0.3209
  571UNK    C01 5132   2.476   3.822   1.955  0.8184  1.3543  0.0559
  571UNK    H02 5133   2.450   3.727   2.002  0.4102  0.8991 -1.0512
  571UNK    C03 5134   2.406   3.895   1.871 -0.8097 -0.1616  0.6980
  571UNK    C04 5135   2.263   3.911   1.874  0.0734  0.2130  0.2973
  571UNK    F05 5136   2.220   3.969   1.761 -0.0559  0.1091  0.1675
  571UNK    F06 5137   2.192   3.799   1.899  0.0034 -0.2654  0.8512
  571UNK    F07 5138   2.240   3.995   1.973  0.4426 -0.0320  0.0723
  571UNK    H08 5139   2.457   3.962   1.804 -1.8656 -0.7288 -0.7319
  572UNK    F00 5140   2.368   0.096   3.757 -0.1487  0.5171  0.0045
  572UNK    C01 5141   2.356   0.231   3.748  0.1734  0.1921  0.4362
  572UNK    H02 5142   2.304   0.264   3.838  0.2172 -1.3602  1.0625
  572UNK    C03 5143   2.357   0.290   3.628 -0.9307  0.1325 -0.3765
  572UNK    C04 5144   2.225   0.319   3.565  0.3904  0.3932 -0.1204
  572UNK    F05 5145   2.242   0.325   3.431 -0.1283 -0.4048  0.0076
  572UNK    F06 5146   2.142   0.216   3.601 -0.4059  0.0399  0.0885
  572UNK    F07 5147   2.171   0.438   3.598  0.7185  0.0589  0.2387
  572UNK    H08 5148   2.428   0.240   3.564  0.6776  0.9007  0.7386
  573UNK    F00 5149   2.353   3.974   0.739  0.0099 -0.5460 -0.6680
  573UNK    C01 5150   2.371   3.868   0.811  0.1490  0.6621 -0.5915
  573UNK    H02 5151   2.467   3.819   0.796 -0.5066 -0.3810 -1.5354
  573UNK    C03 5152   2.302   3.851   0.923  0.0973  0.1291 -0.4990
  573UNK    C04 5153   2.334   3.765   1.035  0.0221  0.0760  0.2245
  573UNK    F05 5154   2.350   3.637   0.990  0.1742  0.1592  0.1694
  573UNK    F06 5155   2.453   3.804   1.083  0.3620  0.1223 -0.3569
  573UNK    F07 5156   2.258   3.779   1.147  0.6711  0.4894  0.2501
  573UNK    H08 5157   2.261   3.940   0.970  0.7843  0.2458 -0.1123
  574UNK    F00 5158   2.188   2.365   4.773  0.0062 -0.7600 -0.6730
  574UNK    C01 5159   2.252   2.404   4.879 -0.9075 -0.0735  0.4033
  574UNK    H02 5160   2.280   2.508   4.862 -2.1484  0.1220 -0.5996
  574UNK    C03 5161   2.301   2.318   4.967 -0.3246  0.6362 -0.5493
  574UNK    C04 5162   2.328   2.374   5.104  0.5113  0.5050 -0.5386
  574UNK    F05 5163   2.433   2.307   5.165 -0.3405  0.4355  0.3820
  574UNK    F06 5164   2.358   2.505   5.101  0.2132 -0.0769  0.3175
  574UNK    F07 5165   2.218   2.357   5.183  1.0829  0.2761 -0.3928
  574UNK    H08 5166   2.298   2.211   4.953  0.7671  0.4114  0.7535
  575UNK    F00 5167   2.105   0.014   3.024  0.0043 -0.0308 -0.4460
  575UNK    C01 5168   2.230   0.016   3.080 -0.1523 -0.5907 -0.3426
  575UNK    H02 5169   2.246  -0.066   3.151 -0.3679 -0.2837  0.0629
  575UNK    C03 5170   2.322   0.102   3.034  0.5781 -0.6099 -0.0308
  575UNK    C04 5171   2.337   0.142   2.900  0.2906 -0.4267  0.2148
  575UNK    F05 5172   2.457   0.197   2.879 -0.1188 -0.0111 -0.1877
  575UNK    F06 5173   2.318   0.037   2.814  0.4552 -0.3648  0.3560
  575UNK    F07 5174   2.253   0.238   2.856  0.2070 -0.2093  0.0602
  575UNK    H08 5175   2.334   0.191   3.094  0.0853 -0.3325 -0.3392
  576UNK    F00 5176   4.772   4.208   1.337 -0.4248 -0.1015  0.3441
  576UNK    C01 5177   4.843   4.180   1.229  0.3570 -0.3305  0.5651
  576UNK    H02 5178   4.819   4.086   1.180 -1.7132 -0.3514  1.5008
  576UNK    C03 5179   4.903   4.291   1.177  0.0442  0.2760  0.1239
  576UNK    C04 5180   4.832   4.421   1.145  0.5940  0.2884 -0.1389
  576UNK    F05 5181   4.706   4.391   1.104  0.3087 -0.7859 -0.3717
  576UNK    F06 5182   4.842   4.510   1.251  0.0189  0.2615  0.5630
  576UNK    F07 5183   4.887   4.490   1.043  0.4386  0.4518  0.1727
  576UNK    H08 5184   5.011   4.301   1.181  0.2435 -0.9614 -1.4839
  577UNK    F00 5185   0.097   2.921   1.491 -0.5126 -0.0935  0.2764
  577UNK    C01 5186   0.207   2.978   1.545  0.0345  0.1109  0.0392
  577UNK    H02 5187   0.283   2.909   1.580  0.6923  1.2220  0.8499
  577UNK    C03 5188   0.202   3.111   1.558  0.2528 -0.4847  0.0414
  577UNK    C04 5189   0.303   3.212   1.547  0.1962  0.2065  0.3641
  577UNK    F05 5190   0.407   3.187   1.628 -0.2154 -0.1165 -0.1329
  577UNK    F06 5191   0.345   3.237   1.419 -0.5042 -0.0831  0.5536
  577UNK    F07 5192   0.254   3.327   1.591  0.3600  0.0351  0.4188
  577UNK    H08 5193   0.102   3.152   1.559  0.8260  1.0048 -0.7315
  578UNK    F00 5194   4.018   3.709   2.765 -0.0002 -0.3944  0.3201
  578UNK    C01 5195   3.899   3.768   2.774 -0.7549 -0.0362  0.9008
  578UNK    H02 5196   3.813   3.704   2.761 -1.8970  1.8786 -1.7590
  578UNK    C03 5197   3.895   3.901   2.794  0.4525  1.0077 -0.1618
  578UNK    C04 5198   3.903   3.992   2.681  0.3819 -0.4318 -0.6359
  578UNK    F05 5199   3.971   4.108   2.716  0.2085  0.4331  0.1442
  578UNK    F06 5200   3.969   3.940   2.577 -0.7995  0.1455 -0.1007
  578UNK    F07 5201   3.784   4.019   2.625  0.3115 -0.3193  0.2811
  578UNK    H08 5202   3.963   3.945   2.866  0.7191 -1.1393  0.9814
  579UNK    F00 5203   3.966   4.179   4.431  0.1909 -0.9681  0.0030
  579UNK    C01 5204   3.936   4.093   4.527  0.4450  0.3118 -0.6115
  579UNK    H02 5205   3.883   4.005   4.491  2.9830 -2.0725  1.0436
  579UNK    C03 5206   3.944   4.133   4.657  0.4153  0.6497 -0.2851
  579UNK    C04 5207   3.843   4.213   4.718  0.1956  0.6174 -0.1071
  579UNK    F05 5208   3.745   4.130   4.749  0.1291 -0.2365  0.2807
  579UNK    F06 5209   3.885   4.248   4.845  0.7381 -0.2048  0.7107
  579UNK    F07 5210   3.807   4.316   4.638 -0.2023 -0.0231  0.2481
  579UNK    H08 5211   4.044   4.138   4.696 -0.2457 -0.2196  1.6770
  580UNK    F00 5212   0.965   1.528   2.343  0.1397  0.1956  0.2025
  580UNK    C01 5213   1.067   1.594   2.284  0.0495 -0.6181 -0.3864
  580UNK    H02 5214   1.149   1.620   2.352 -1.0791 -0.4191  0.9464
  580UNK    C03 5215   1.024   1.646   2.164  0.0053  0.1527  0.1598
  580UNK    C04 5216   1.117   1.711   2.071 -0.5459 -0.3180 -0.2250
  580UNK    F05 5217   1.189   1.629   1.996  0.1924  0.7114 -0.2713
  580UNK    F06 5218   1.046   1.798   1.994  0.2246  0.1317 -0.0624
  580UNK    F07 5219   1.205   1.793   2.134  0.3493 -0.4986  0.5818
  580UNK    H08 5220   0.937   1.597   2.123 -0.9263  1.5800  0.3670
  581UNK    F00 5221   3.413   1.078   1.602  0.5211 -0.8563 -0.1750
  581UNK    C01 5222   3.495   1.029   1.692  0.0506  0.5858 -0.2266
  581UNK    H02 5223   3.459   0.931   1.724 -0.3416  0.3977 -1.2332
  581UNK    C03 5224   3.592   1.109   1.737 -0.1510 -0.3364 -0.0263
  581UNK    C04 5225   3.565   1.208   1.844  0.0425 -0.2302 -0.8127
  581UNK    F05 5226   3.646   1.310   1.838 -0.3481 -0.2343  0.3200
  581UNK    F06 5227   3.440   1.249   1.814 -0.0329  0.2538  0.2099
  581UNK    F07 5228   3.559   1.157   1.973 -0.4320 -0.1302 -0.2653
  581UNK    H08 5229   3.678   1.143   1.681  0.3985  2.1743  2.1395
  582UNK    F00 5230   2.662   3.751   2.219 -0.3327  0.2259 -0.6951
  582UNK    C01 5231   2.665   3.848   2.307  0.1970  0.2421 -0.0891
  582UNK    H02 5232   2.710   3.942   2.273  0.6933  0.4723  1.1568
  582UNK    C03 5233   2.575   3.838   2.403 -0.0584 -0.0806 -0.1122
  582UNK    C04 5234   2.555   3.942   2.506  0.7010  0.1846 -0.3568
  582UNK    F05 5235   2.505   3.892   2.618  0.7125 -0.1764 -0.6922
  582UNK    F06 5236   2.673   4.003   2.552 -0.1863  0.0558  0.0162
  582UNK    F07 5237   2.482   4.047   2.461  0.0094  0.2795  0.2773
  582UNK    H08 5238   2.508   3.755   2.412 -2.2080  1.5825  0.0069
  583UNK    F00 5239   0.286   3.311   3.962  0.0287  0.8320 -0.4826
  583UNK    C01 5240   0.259   3.296   4.096  0.5884  0.4973  0.0836
  583UNK    H02 5241   0.187   3.371   4.127 -1.2708 -1.7319  1.5376
  583UNK    C03 5242   0.273   3.176   4.152 -0.4035 -1.2915  0.2330
  583UNK    C04 5243   0.216   3.056   4.094  0.2418 -0.1417 -0.1692
  583UNK    F05 5244   0.271   3.041   3.969 -0.1908 -0.3772  0.7121
  583UNK    F06 5245   0.264   2.953   4.171  0.3872  0.5273 -0.8486
  583UNK    F07 5246   0.081   3.059   4.090  0.7517 -0.1312  0.0816
  583UNK    H08 5247   0.269   3.178   4.260 -0.1107 -0.6283  0.2309
  584UNK    F00 5248   2.387   2.893   0.181  0.5146  0.2978  0.2260
  584UNK    C01 5249   2.323   2.879   0.299  0.2729 -0.2473 -0.4587
  584UNK    H02 5250   2.373   2.920   0.386 -0.4636  0.9002 -0.5468
  584UNK    C03 5251   2.231   2.792   0.297 -0.0693  0.1121 -0.0302
  584UNK    C04 5252   2.115   2.787   0.389 -0.3328 -0.0667 -0.8038
  584UNK    F05 5253   2.066   2.662   0.380 -0.4980  0.0366 -0.5533
  584UNK    F06 5254   2.129   2.826   0.518  0.0952  0.5172  0.3403
  584UNK    F07 5255   2.004   2.862   0.350  0.3629 -0.0838 -0.1443
  584UNK    H08 5256   2.236   2.714   0.223 -0.3412  1.1105 -1.1377
  585UNK    F00 5257   2.556   3.829   4.688 -0.5487 -0.4261 -0.2413
  585UNK    C01 5258   2.599   3.920   4.777  0.4735  0.2445 -0.5591
  585UNK    H02 5259   2.649   3.865   4.856 -2.1894  2.2785  2.8306
  585UNK    C03 5260   2.579   4.052   4.769  0.5620 -0.5657 -0.2389
  585UNK    C04 5261   2.674   4.154   4.822 -0.0330 -0.1181 -0.0060
  585UNK    F05 5262   2.714   4.122   4.944 -0.5049 -0.2085 -0.0094
  585UNK    F06 5263   2.785   4.179   4.736  0.1364 -0.3082 -0.0542
  585UNK    F07 5264   2.605   4.272   4.822 -0.4045  0.1963  0.2491
  585UNK    H08 5265   2.480   4.084   4.799  0.6282 -0.7584  0.1954
  586UNK    F00 5266   3.466   2.875   0.764 -0.0598  0.3101  0.0869
  586UNK    C01 5267   3.343   2.863   0.807  0.0661 -0.6176  0.6909
  586UNK    H02 5268   3.273   2.842   0.726 -1.3080  1.4247  1.2564
  586UNK    C03 5269   3.330   2.840   0.935 -0.7804 -0.7347 -0.5293
  586UNK    C04 5270   3.248   2.737   0.995  0.8147 -0.0166 -0.1493
  586UNK    F05 5271   3.327   2.628   1.019  0.3438 -0.1813  0.2048
  586UNK    F06 5272   3.180   2.777   1.107 -0.2394  0.0431  0.0414
  586UNK    F07 5273   3.152   2.698   0.908  1.0308 -0.1198 -0.1681
  586UNK    H08 5274   3.377   2.909   1.004 -0.0963  0.7158 -2.3464
  587UNK    F00 5275   1.896   2.353   1.362  0.4017  0.0339  0.3031
  587UNK    C01 5276   1.912   2.255   1.272  0.0835  0.2554  0.2121
  587UNK    H02 5277   2.009   2.209   1.288  0.1499 -0.0185 -0.8878
  587UNK    C03 5278   1.809   2.230   1.185 -1.0030  0.1996  0.1361
  587UNK    C04 5279   1.810   2.094   1.139  0.1546  0.6359 -0.0821
  587UNK    F05 5280   1.771   2.000   1.226  0.6554  0.4857 -0.3828
  587UNK    F06 5281   1.734   2.076   1.025  0.5520  0.4041  0.4324
  587UNK    F07 5282   1.926   2.065   1.084  0.1845 -0.0095 -0.2903
  587UNK    H08 5283   1.792   2.297   1.102  2.9685 -0.2474 -1.2548
  588UNK    F00 5284   4.093   2.486   0.150 -0.3535 -0.1709 -0.0316
  588UNK    C01 5285   4.123   2.361   0.177  0.5209 -0.5084  0.4863
  588UNK    H02 5286   4.130   2.342   0.284  0.6425  1.6637  0.8990
  588UNK    C03 5287   4.203   2.304   0.089 -0.4035  0.1107 -0.0055
  588UNK    C04 5288   4.200   2.165   0.047  0.0250 -0.4005 -0.1184
  588UNK    F05 5289   4.084   2.116  -0.001  0.2627  0.6466  0.3747
  588UNK    F06 5290   4.283   2.139  -0.055  0.2785  0.0637  0.4623
  588UNK    F07 5291   4.259   2.089   0.140 -0.2596 -0.0633  0.3459
  588UNK    H08 5292   4.241   2.362   0.007  1.8754 -2.2623 -0.7902
  589UNK    F00 5293   0.947   1.751   2.933 -0.1359  0.6300  0.0815
  589UNK    C01 5294   0.830   1.694   2.911 -0.2094  0.5659 -0.1860
  589UNK    H02 5295   0.773   1.672   3.001 -0.4763  0.5298 -0.3611
  589UNK    C03 5296   0.825   1.618   2.799  0.3456  0.1336  0.0603
  589UNK    C04 5297   0.718   1.517   2.781 -0.3439  0.3676  0.7732
  589UNK    F05 5298   0.615   1.564   2.702  0.0055  0.3989  0.1711
  589UNK    F06 5299   0.776   1.418   2.709  0.0743  0.6806 -0.0412
  589UNK    F07 5300   0.674   1.461   2.896  0.2032  0.1008 -0.1718
  589UNK    H08 5301   0.860   1.653   2.703  0.3114 -1.2917 -0.5053
  590UNK    F00 5302   2.302   4.061   0.127  0.6876  0.7618 -0.1938
  590UNK    C01 5303   2.193   4.140   0.136 -0.0767  0.3029 -0.0754
  590UNK    H02 5304   2.211   4.233   0.082  1.5487  0.0551 -0.0162
  590UNK    C03 5305   2.100   4.107   0.228 -0.3956  0.0975 -0.4920
  590UNK    C04 5306   2.023   3.977   0.219  0.2441 -0.3525 -0.4291
  590UNK    F05 5307   2.095   3.867   0.240 -0.1024  0.1392  0.0511
  590UNK    F06 5308   1.909   3.987   0.298  0.2829 -0.0377 -0.3641
  590UNK    F07 5309   1.981   3.961   0.085 -0.3184 -0.9284  0.2237
  590UNK    H08 5310   2.112   4.153   0.325 -0.8378 -0.2467 -0.2700
  591UNK    F00 5311   3.552   2.537   1.883  0.0316 -0.2416  0.0062
  591UNK    C01 5312   3.541   2.611   1.769 -0.1147  0.0377  0.1530
  591UNK    H02 5313   3.463   2.556   1.716 -1.3001 -0.4091  2.2559
  591UNK    C03 5314   3.602   2.736   1.752 -0.0972  0.9338  0.8893
  591UNK    C04 5315   3.533   2.835   1.665 -0.1655  0.0536 -0.0524
  591UNK    F05 5316   3.505   2.788   1.538  0.0855  0.1503  0.0167
  591UNK    F06 5317   3.412   2.867   1.709  0.3145  0.0386 -0.2976
  591UNK    F07 5318   3.612   2.947   1.668 -0.1353  0.4530 -0.3674
  591UNK    H08 5319   3.636   2.774   1.847  2.2511  0.4426  0.3255
  592UNK    F00 5320   3.392   3.527   0.067 -0.5342  0.0924  0.0887
  592UNK    C01 5321   3.328   3.459   0.164  0.9199  0.9292  0.1813
  592UNK    H02 5322   3.394   3.381   0.201 -1.6874 -1.4709  0.1878
  592UNK    C03 5323   3.216   3.499   0.220 -0.0071  0.0257 -0.2729
  592UNK    C04 5324   3.219   3.528   0.364 -0.3158  0.4746 -0.8561
  592UNK    F05 5325   3.096   3.510   0.410  0.2011 -1.0085 -0.2365
  592UNK    F06 5326   3.298   3.441   0.435  0.4322  0.0342  0.2595
  592UNK    F07 5327   3.249   3.657   0.392  0.7246 -0.1906  0.2810
  592UNK    H08 5328   3.121   3.488   0.169  0.1904  0.5336 -0.7631
  593UNK    F00 5329   3.383   4.544   4.082  0.1833 -0.1307 -0.0417
  593UNK    C01 5330   3.382   4.665   4.026  0.3198 -0.1374  0.5154
  593UNK    H02 5331   3.476   4.678   3.970  0.1840 -1.4762 -0.0744
  593UNK    C03 5332   3.279   4.743   4.047  0.4722  0.1646  0.6512
  593UNK    C04 5333   3.148   4.683   4.053  0.2947  0.5105  0.0734
  593UNK    F05 5334   3.060   4.783   4.056  0.2612 -0.8868  0.0345
  593UNK    F06 5335   3.118   4.612   3.941 -0.1849  0.1911 -0.6091
  593UNK    F07 5336   3.126   4.604   4.157  0.3741 -0.0937 -0.5891
  593UNK    H08 5337   3.298   4.831   4.107  1.2620  0.2068  0.3634
  594UNK    F00 5338   0.239   1.149   4.666 -0.2731  0.5632  0.5083
  594UNK    C01 5339   0.156   1.090   4.751  0.2636 -0.4165 -0.5690
  594UNK    H02 5340   0.189   1.099   4.854 -1.2439  1.6129 -0.1953
  594UNK    C03 5341   0.042   1.041   4.709  0.9058 -0.1569 -0.0763
  594UNK    C04 5342  -0.065   0.994   4.797 -0.1545 -0.3120  0.1906
  594UNK    F05 5343  -0.156   0.933   4.726  0.3162  0.1058  0.3644
  594UNK    F06 5344  -0.018   0.904   4.884  0.0377  0.2929 -0.3447
  594UNK    F07 5345  -0.115   1.103   4.864 -0.4398 -0.3285  0.3072
  594UNK    H08 5346   0.032   1.003   4.608 -0.3514  1.7049 -0.6997
  595UNK    F00 5347   3.597   2.478   2.179  0.2270 -0.6840  0.1961
  595UNK    C01 5348   3.626   2.347   2.151  0.2831 -0.2497 -0.3158
  595UNK    H02 5349   3.546   2.278   2.178  1.2424 -1.2352  0.0834
  595UNK    C03 5350   3.739   2.306   2.085 -0.1208 -0.0603  0.5039
  595UNK    C04 5351   3.746   2.168   2.035  0.2653  0.3995  0.2178
  595UNK    F05 5352   3.667   2.082   2.102  0.0839  0.0461  0.6125
  595UNK    F06 5353   3.701   2.177   1.906 -0.1020 -0.2746 -0.1221
  595UNK    F07 5354   3.874   2.122   2.040 -0.5624 -0.0720  0.2985
  595UNK    H08 5355   3.816   2.371   2.045  1.2511 -2.0430 -0.2148
  596UNK    F00 5356   3.442   0.379   3.395  0.1616  0.2163 -0.4153
  596UNK    C01 5357   3.431   0.274   3.473 -0.1395 -0.0659 -0.4073
  596UNK    H02 5358   3.413   0.188   3.408 -1.1520  0.2885 -0.6061
  596UNK    C03 5359   3.415   0.289   3.607  0.0405 -0.2439  0.7574
  596UNK    C04 5360   3.430   0.174   3.703 -0.2038 -0.9504 -0.4801
  596UNK    F05 5361   3.389   0.056   3.664  0.1390 -0.1383 -0.3154
  596UNK    F06 5362   3.561   0.152   3.738  0.0608  0.1768 -0.4337
  596UNK    F07 5363   3.355   0.188   3.815  0.5978 -0.1561  0.0176
  596UNK    H08 5364   3.339   0.352   3.651 -0.2331 -0.4138  0.5341
  597UNK    F00 5365   4.531   1.148   3.812 -0.4836 -0.2852 -0.3382
  597UNK    C01 5366   4.512   1.282   3.809 -0.6493 -0.0686  0.5082
  597UNK    H02 5367   4.472   1.311   3.712  0.2291 -1.6923 -0.3898
  597UNK    C03 5368   4.541   1.366   3.904 -1.2043 -0.6953 -0.2258
  597UNK    C04 5369   4.495   1.501   3.911 -0.2587 -1.0174 -0.4047
  597UNK    F05 5370   4.564   1.585   3.991  0.1466  0.0319  0.7335
  597UNK    F06 5371   4.512   1.563   3.795  0.1072 -0.2282  0.1674
  597UNK    F07 5372   4.361   1.517   3.934  0.1441  0.1315 -0.1462
  597UNK    H08 5373   4.627   1.355   3.968  0.0773  0.6284 -1.6412
  598UNK    F00 5374   1.455   1.847   0.156  0.0454  0.1428 -0.1676
  598UNK    C01 5375   1.391   1.854   0.277  0.1954 -0.2469 -0.1409
  598UNK    H02 5376   1.325   1.940   0.277  1.4090  0.7177 -1.0603
  598UNK    C03 5377   1.439   1.783   0.382 -0.6024  0.6294  0.1766
  598UNK    C04 5378   1.482   1.853   0.505 -0.7320  1.0452  0.3881
  598UNK    F05 5379   1.465   1.981   0.489 -0.0374 -0.5261 -0.6047
  598UNK    F06 5380   1.420   1.816   0.613  0.4929  0.8074 -0.0893
  598UNK    F07 5381   1.610   1.824   0.525  0.1007  0.1303 -0.6981
  598UNK    H08 5382   1.476   1.682   0.390 -1.2791  0.4191  0.7757
  599UNK    F00 5383   1.420   4.133   2.181  0.1077  0.5194  0.1977
  599UNK    C01 5384   1.508   4.058   2.251  0.4003 -0.0577 -0.1675
  599UNK    H02 5385   1.608   4.100   2.247  1.3520 -2.2596 -2.0543
  599UNK    C03 5386   1.461   3.966   2.331  0.1794 -0.4164 -0.3046
  599UNK    C04 5387   1.551   3.901   2.423  0.0156 -0.4387  0.6643
  599UNK    F05 5388   1.568   3.981   2.531  0.2826  0.1264 -0.4139
  599UNK    F06 5389   1.501   3.787   2.466  0.3023  0.7556 -0.4790
  599UNK    F07 5390   1.668   3.871   2.365 -0.3589 -0.5925 -0.2088
  599UNK    H08 5391   1.365   3.923   2.306 -0.3070  0.8851 -0.7796
  600UNK    F00 5392   3.135   1.423   4.015  0.2133 -0.3363 -0.2032
  600UNK    C01 5393   3.181   1.394   4.140 -0.5617 -0.4459  0.7016
  600UNK    H02 5394   3.103   1.423   4.210 -0.1590 -0.1368  1.0262
  600UNK    C03 5395   3.296   1.340   4.165 -0.0465 -0.2454  0.0479
  600UNK    C04 5396   3.354   1.322   4.300  0.6316 -0.0687 -0.1581
  600UNK    F05 5397   3.485   1.306   4.286  0.2199 -0.3005 -0.1620
  600UNK    F06 5398   3.349   1.428   4.385  0.4450 -0.1149 -0.0553
  600UNK    F07 5399   3.297   1.208   4.348 -0.2271  0.2848 -0.4212
  600UNK    H08 5400   3.368   1.344   4.085 -0.3770 -1.5449 -0.3517
  601UNK    F00 5401   4.268   1.476   3.185 -0.3433  0.4240  0.6593
  601UNK    C01 5402   4.277   1.350   3.223  0.2535  0.5327  0.0750
  601UNK    H02 5403   4.181   1.300   3.209 -0.0191 -0.1806  3.4398
  601UNK    C03 5404   4.386   1.305   3.280 -0.0286  0.4415 -0.6472
  601UNK    C04 5405   4.394   1.260   3.425  0.4212  0.3656  0.3783
  601UNK    F05 5406   4.367   1.127   3.441  0.4865 -0.2908 -0.1933
  601UNK    F06 5407   4.520   1.282   3.469  0.2969  0.2936 -0.2911
  601UNK    F07 5408   4.309   1.329   3.511 -0.0050 -0.0858  0.1625
  601UNK    H08 5409   4.480   1.357   3.264  1.1586 -1.3803  0.0946
  602UNK    F00 5410   0.406   0.502   3.047 -0.3742  0.1564  0.2122
  602UNK    C01 5411   0.342   0.519   3.165  0.2713 -0.2473 -0.1420
  602UNK    H02 5412   0.266   0.596   3.153 -0.4847 -0.5879  1.9899
  602UNK    C03 5413   0.377   0.455   3.278  0.0781 -0.3546  0.0744
  602UNK    C04 5414   0.288   0.416   3.386  0.0054  0.1829  0.2814
  602UNK    F05 5415   0.241   0.290   3.365  0.1880 -0.6951 -0.0175
  602UNK    F06 5416   0.359   0.397   3.501  0.2720 -0.0022 -0.0102
  602UNK    F07 5417   0.193   0.507   3.403  0.2243 -0.0437 -0.4898
  602UNK    H08 5418   0.471   0.487   3.322  0.6148  0.4176 -1.5541
  603UNK    F00 5419   1.171   4.119   4.600  0.2068  0.0623  0.1428
  603UNK    C01 5420   1.054   4.132   4.537 -0.6201 -0.3825  0.0132
  603UNK    H02 5421   1.051   4.211   4.461 -1.4308  1.5689  1.9806
  603UNK    C03 5422   0.943   4.091   4.595  0.5742 -0.4590 -0.5302
  603UNK    C04 5423   0.814   4.076   4.520  0.2767  0.2632 -1.0380
  603UNK    F05 5424   0.802   3.958   4.455  0.5939 -0.7066  0.1187
  603UNK    F06 5425   0.710   4.077   4.610  0.4091 -0.2491  0.1156
  603UNK    F07 5426   0.794   4.179   4.440  0.3607  0.2686  0.0222
  603UNK    H08 5427   0.963   4.012   4.665 -1.3708  2.1425  3.3327
  604UNK    F00 5428   3.207   3.101   0.607  0.2246 -0.1619 -0.2935
  604UNK    C01 5429   3.075   3.068   0.595 -0.0938 -0.3246 -0.1948
  604UNK    H02 5430   3.009   3.089   0.679 -0.4279 -1.5542 -0.1262
  604UNK    C03 5431   3.032   3.044   0.472  1.3290  0.1979 -0.4197
  604UNK    C04 5432   3.080   3.125   0.358 -0.2871  0.5253 -0.4414
  604UNK    F05 5433   3.091   3.254   0.382  0.3048  0.2104 -0.1058
  604UNK    F06 5434   3.192   3.070   0.300  0.4447 -0.2717 -0.1816
  604UNK    F07 5435   2.988   3.110   0.262 -0.0446 -0.6751  0.1457
  604UNK    H08 5436   2.992   2.947   0.448 -0.2314 -0.0037  2.5604
  605UNK    F00 5437   0.931   0.998   1.409  0.2028  0.0351  0.4348
  605UNK    C01 5438   0.907   0.925   1.302 -0.9455 -0.4617 -0.1082
  605UNK    H02 5439   0.918   0.993   1.217  0.4828  0.7978  1.0366
  605UNK    C03 5440   0.835   0.813   1.296  0.2622 -0.2378  0.6916
  605UNK    C04 5441   0.852   0.705   1.202  0.1904  1.1924  0.0320
  605UNK    F05 5442   0.747   0.619   1.203  0.5572 -0.0146 -0.5466
  605UNK    F06 5443   0.864   0.751   1.084  0.2880 -0.7554  0.2401
  605UNK    F07 5444   0.961   0.632   1.245  0.1426 -0.4002  0.5740
  605UNK    H08 5445   0.776   0.795   1.385 -0.1212  2.2565  1.0068
  606UNK    F00 5446   0.284   0.192   3.693  0.0907 -0.4931 -0.0254
  606UNK    C01 5447   0.231   0.158   3.810 -0.2753 -0.6313  0.4019
  606UNK    H02 5448   0.126   0.185   3.820  0.1498  0.9491  0.9202
  606UNK    C03 5449   0.301   0.094   3.906 -0.0055 -0.5647 -0.1418
  606UNK    C04 5450   0.388   0.162   4.005 -0.4496 -0.3731 -0.5183
  606UNK    F05 5451   0.306   0.191   4.113  0.4847 -0.2157 -0.2822
  606UNK    F06 5452   0.483   0.083   4.057 -0.0508  0.1174 -0.0139
  606UNK    F07 5453   0.454   0.275   3.961  0.1593  0.4971 -0.2932
  606UNK    H08 5454   0.297  -0.013   3.916  0.0405 -0.7471 -1.8392
  607UNK    F00 5455   3.050   0.957   1.087 -0.7950 -0.2892  0.5855
  607UNK    C01 5456   3.090   1.069   1.146 -0.2991 -0.4629 -0.1189
  607UNK    H02 5457   3.071   1.161   1.090  1.1888 -0.0492  0.0172
  607UNK    C03 5458   3.136   1.075   1.273  0.0803 -0.0129  0.2930
  607UNK    C04 5459   3.125   1.183   1.372 -0.5938  0.1202  0.2629
  607UNK    F05 5460   3.077   1.301   1.332  0.2670 -0.4561 -0.0148
  607UNK    F06 5461   3.069   1.151   1.487 -0.0071 -0.1285  0.1042
  607UNK    F07 5462   3.254   1.200   1.412 -0.3896  0.2863 -0.0773
  607UNK    H08 5463   3.165   0.979   1.313 -3.2638 -2.4125 -2.4174
  608UNK    F00 5464   1.902   3.586   0.201  0.2814 -0.2122 -0.3524
  608UNK    C01 5465   1.775   3.634   0.221  0.0777 -0.3310  0.4018
  608UNK    H02 5466   1.713   3.570   0.283 -2.1595  0.9593 -0.3915
  608UNK    C03 5467   1.726   3.737   0.147 -0.3126 -0.1295 -0.2498
  608UNK    C04 5468   1.625   3.832   0.192  0.0004 -0.2959  0.5116
  608UNK    F05 5469   1.623   3.937   0.100 -0.1032  0.0163  0.1598
  608UNK    F06 5470   1.499   3.778   0.199  0.3445 -0.1672  0.3861
  608UNK    F07 5471   1.646   3.888   0.314 -0.0254  0.3517  0.6263
  608UNK    H08 5472   1.798   3.777   0.078  0.1663  0.6150  0.6507
  609UNK    F00 5473   4.621   2.225   3.688 -0.1762  0.0163  0.0383
  609UNK    C01 5474   4.633   2.263   3.815  0.2866 -0.4609 -0.0865
  609UNK    H02 5475   4.533   2.287   3.853  1.1117 -2.1652  3.5913
  609UNK    C03 5476   4.736   2.322   3.859  0.4808 -0.4127  0.4052
  609UNK    C04 5477   4.761   2.468   3.831  0.1408 -0.3963 -0.2344
  609UNK    F05 5478   4.666   2.555   3.871  0.3227 -0.3904  0.0736
  609UNK    F06 5479   4.890   2.504   3.874  0.0188  0.1822 -0.3544
  609UNK    F07 5480   4.774   2.488   3.698  0.5058  0.1867  0.3055
  609UNK    H08 5481   4.747   2.301   3.964 -1.9769 -1.8142  0.4655
  610UNK    F00 5482   2.701   4.439   3.757  0.0380  0.2939  0.2014
  610UNK    C01 5483   2.757   4.412   3.877 -0.2946  0.4495 -0.8020
  610UNK    H02 5484   2.811   4.318   3.879  0.5423  0.9248  0.6704
  610UNK    C03 5485   2.699   4.464   3.986 -0.2136 -0.3628 -0.1480
  610UNK    C04 5486   2.570   4.428   4.048  0.1572 -0.7095 -0.1529
  610UNK    F05 5487   2.527   4.532   4.131  0.1818  0.2905  0.0355
  610UNK    F06 5488   2.489   4.432   3.943  0.6401 -0.2242  0.3703
  610UNK    F07 5489   2.553   4.299   4.099  0.0212 -0.5330 -0.0868
  610UNK    H08 5490   2.751   4.547   4.031 -1.2972  0.1773  0.1379
  611UNK    F00 5491   4.580   1.684   3.530 -0.2599 -0.3223  0.0345
  611UNK    C01 5492   4.501   1.771   3.456 -0.1641  0.2299 -0.4389
  611UNK    H02 5493   4.515   1.873   3.493  0.6447 -1.1005  3.2991
  611UNK    C03 5494   4.390   1.717   3.413 -0.1494  0.4085  0.4025
  611UNK    C04 5495   4.309   1.785   3.307  0.2775 -0.1335 -0.3238
  611UNK    F05 5496   4.307   1.923   3.323 -0.1174  1.2815  0.3099
  611UNK    F06 5497   4.353   1.749   3.180  0.5870 -0.0318 -0.1940
  611UNK    F07 5498   4.184   1.739   3.311  0.4086  0.0999 -0.0697
  611UNK    H08 5499   4.358   1.617   3.441 -1.5239  1.2047  1.7840
  612UNK    F00 5500   0.312   0.882   4.625 -0.0504  0.5432  0.0787
  612UNK    C01 5501   0.322   0.756   4.577  0.9917  0.1671  0.4548
  612UNK    H02 5502   0.239   0.702   4.622 -0.2119  0.8928 -0.8051
  612UNK    C03 5503   0.362   0.745   4.449  0.1921 -0.9086 -0.4886
  612UNK    C04 5504   0.500   0.735   4.413  0.5287 -0.6153 -0.5185
  612UNK    F05 5505   0.586   0.781   4.513 -0.0293  0.0654 -0.0539
  612UNK    F06 5506   0.527   0.609   4.370 -0.2234  0.3884 -0.0283
  612UNK    F07 5507   0.523   0.814   4.304  0.4447  0.1370  0.0897
  612UNK    H08 5508   0.294   0.726   4.367 -1.5455  1.3262  0.3417
  613UNK    F00 5509   2.506   0.964   4.381  0.1083  0.0326 -0.0725
  613UNK    C01 5510   2.395   1.028   4.352 -0.2065  0.0486 -0.1371
  613UNK    H02 5511   2.394   1.137   4.350 -0.7497  0.0381 -0.8015
  613UNK    C03 5512   2.286   0.953   4.344 -0.5009  0.5535 -0.2619
  613UNK    C04 5513   2.163   1.010   4.283 -0.6022  0.3949 -1.7096
  613UNK    F05 5514   2.186   1.023   4.150  0.1662  0.0669 -0.3989
  613UNK    F06 5515   2.053   0.930   4.303  0.1023 -0.1691  0.8127
  613UNK    F07 5516   2.130   1.125   4.333 -0.1217 -0.9124  0.0199
  613UNK    H08 5517   2.268   0.885   4.426 -1.2121 -1.2096 -1.8091
  614UNK    F00 5518   0.942   2.343   3.917 -0.4055  0.2464 -0.4687
  614UNK    C01 5519   1.068   2.302   3.926  0.0941  0.0171  0.0866
  614UNK    H02 5520   1.077   2.211   3.865  2.1838 -0.9150  1.6923
  614UNK    C03 5521   1.136   2.337   4.034  0.3911 -0.5927  0.4723
  614UNK    C04 5522   1.276   2.332   4.055  0.2777 -0.2630 -0.0403
  614UNK    F05 5523   1.344   2.284   3.950 -0.0452  0.6579  0.5699
  614UNK    F06 5524   1.313   2.465   4.069 -0.4525 -0.0396 -0.0743
  614UNK    F07 5525   1.304   2.289   4.180 -0.3155  0.0093 -0.4106
  614UNK    H08 5526   1.088   2.381   4.120 -0.6705  0.0501 -0.4167
  615UNK    F00 5527   1.761   0.920   3.290 -0.1739  0.0162 -0.0767
  615UNK    C01 5528   1.688   0.815   3.312 -0.0363  0.3004  0.4769
  615UNK    H02 5529   1.628   0.824   3.402  1.3956 -2.5214  1.8312
  615UNK    C03 5530   1.726   0.702   3.245  0.6957  0.6636  0.1555
  615UNK    C04 5531   1.616   0.602   3.217  0.2232 -0.0348 -0.5467
  615UNK    F05 5532   1.658   0.477   3.214 -0.0169  0.2717  1.2469
  615UNK    F06 5533   1.518   0.602   3.309 -0.1967 -0.5364  0.0046
  615UNK    F07 5534   1.562   0.644   3.100 -0.3573 -0.1705 -0.4919
  615UNK    H08 5535   1.811   0.704   3.179  0.3641 -1.3247 -0.3758
  616UNK    F00 5536   4.792   4.732   1.429 -0.5300  0.4402  0.1289
  616UNK    C01 5537   4.906   4.729   1.493 -0.6398 -0.4362 -0.2906
  616UNK    H02 5538   4.881   4.722   1.599 -0.8892 -2.2879 -0.4475
  616UNK    C03 5539   5.024   4.729   1.432 -0.7947  0.4164 -0.0844
  616UNK    C04 5540   5.156   4.710   1.503  0.0408 -0.2535 -0.2349
  616UNK    F05 5541   5.253   4.742   1.415  0.1614 -0.0688  0.3327
  616UNK    F06 5542   5.174   4.786   1.617  0.3321  0.2334  0.3662
  616UNK    F07 5543   5.176   4.575   1.527 -0.0075 -0.2444 -0.0510
  616UNK    H08 5544   5.022   4.703   1.328 -2.2497 -2.1879  0.5168
  617UNK    F00 5545   3.672   2.392   2.517 -0.1875 -0.1674 -0.6036
  617UNK    C01 5546   3.621   2.507   2.554  0.0084  0.0050 -0.8752
  617UNK    H02 5547   3.690   2.585   2.587 -0.1951  0.0798 -0.6288
  617UNK    C03 5548   3.489   2.518   2.556 -0.7069  0.7736  0.3965
  617UNK    C04 5549   3.414   2.647   2.535 -0.7320 -0.1496 -0.2653
  617UNK    F05 5550   3.378   2.664   2.403 -0.4592  0.1119  0.3781
  617UNK    F06 5551   3.289   2.633   2.591 -0.5620 -0.4339  0.4592
  617UNK    F07 5552   3.474   2.756   2.589  0.4154  0.1120  0.2343
  617UNK    H08 5553   3.432   2.426   2.548  2.5223 -1.3575 -0.0358
  618UNK    F00 5554   0.147   2.768   0.917 -0.3987 -0.6328  0.4965
  618UNK    C01 5555   0.133   2.635   0.923  0.2022 -0.5554  0.3945
  618UNK    H02 5556   0.140   2.605   1.028 -1.6677 -0.5971  0.5511
  618UNK    C03 5557   0.133   2.553   0.819  0.6876 -0.0415  0.0760
  618UNK    C04 5558   0.250   2.491   0.750 -0.1295 -0.4996 -0.4577
  618UNK    F05 5559   0.212   2.406   0.658 -0.7073 -0.2270 -0.1001
  618UNK    F06 5560   0.329   2.568   0.667  0.3516 -0.3189 -0.5455
  618UNK    F07 5561   0.332   2.419   0.831 -0.3918  0.1081 -0.7249
  618UNK    H08 5562   0.042   2.569   0.764  0.3795  2.3377  1.1405
  619UNK    F00 5563   1.364   3.578   1.272  0.3130  0.4519  0.4708
  619UNK    C01 5564   1.358   3.587   1.137 -0.2712 -0.1603 -0.2699
  619UNK    H02 5565   1.446   3.544   1.090  0.1846  0.5396 -0.0644
  619UNK    C03 5566   1.269   3.669   1.079  0.3487 -0.3917 -0.5675
  619UNK    C04 5567   1.294   3.815   1.068  0.4597 -0.1305  0.3842
  619UNK    F05 5568   1.211   3.867   0.971 -0.1055  0.0918 -0.0845
  619UNK    F06 5569   1.253   3.866   1.187  0.9114 -0.1078 -0.4135
  619UNK    F07 5570   1.425   3.849   1.043  0.0359  0.9396 -0.3243
  619UNK    H08 5571   1.167   3.635   1.078 -0.1247  0.3440 -5.7856
  620UNK    F00 5572   3.947   3.438   1.325 -0.5543 -0.3449  0.4323
  620UNK    C01 5573   4.065   3.369   1.322  0.2357  0.2803  0.2678
  620UNK    H02 5574   4.080   3.310   1.413  1.1088  1.0068  0.6159
  620UNK    C03 5575   4.156   3.377   1.230 -0.1910  0.2100 -0.0949
  620UNK    C04 5576   4.110   3.373   1.089 -0.2457  0.3358 -0.1793
  620UNK    F05 5577   4.040   3.263   1.061 -0.2681  0.0483 -0.0420
  620UNK    F06 5578   4.047   3.487   1.058  0.5039  0.2623 -0.1117
  620UNK    F07 5579   4.231   3.365   1.022 -0.4645 -0.4919 -0.1950
  620UNK    H08 5580   4.217   3.463   1.254 -1.7033  0.9668  1.1796
  621UNK    F00 5581   3.208   3.545   2.587  0.3118  0.2334 -0.0549
  621UNK    C01 5582   3.204   3.604   2.465 -0.1043  0.3984  0.3128
  621UNK    H02 5583   3.275   3.562   2.394  1.0917  1.8094  0.6298
  621UNK    C03 5584   3.101   3.693   2.440 -0.6905 -0.0030  0.0803
  621UNK    C04 5585   3.085   3.833   2.498  0.1015  0.1448  0.3236
  621UNK    F05 5586   3.183   3.922   2.471 -0.0847 -0.0342 -0.3590
  621UNK    F06 5587   2.970   3.888   2.447 -0.2055 -0.7740 -0.4589
  621UNK    F07 5588   3.052   3.828   2.629 -0.1576  0.2972 -0.1944
  621UNK    H08 5589   3.015   3.653   2.389  0.1018 -1.8822  0.1503
  622UNK    F00 5590   2.707   0.724   0.384  0.1382  0.5319 -0.0705
  622UNK    C01 5591   2.615   0.702   0.479  0.3767  0.1650 -0.5278
  622UNK    H02 5592   2.536   0.778   0.484 -0.6908 -0.9684  0.8408
  622UNK    C03 5593   2.628   0.599   0.559  0.4549  0.2837  0.5136
  622UNK    C04 5594   2.513   0.525   0.618 -0.3496  0.0723 -0.5084
  622UNK    F05 5595   2.562   0.457   0.722 -0.4964 -0.0841  0.1786
  622UNK    F06 5596   2.409   0.609   0.659  0.2639 -0.2346  0.0916
  622UNK    F07 5597   2.457   0.443   0.530 -0.5624  0.2766 -0.0648
  622UNK    H08 5598   2.724   0.551   0.570 -0.0108 -0.2254  2.8908
  623UNK    F00 5599   3.194   2.164   4.244 -0.9868 -0.7181  0.1441
  623UNK    C01 5600   3.090   2.182   4.331  0.2094  0.3382 -0.2663
  623UNK    H02 5601   3.053   2.083   4.359 -1.0665  0.7902 -0.2787
  623UNK    C03 5602   3.012   2.290   4.312  0.2817 -0.0161  0.2392
  623UNK    C04 5603   2.936   2.347   4.421  0.5837  0.1772  0.2474
  623UNK    F05 5604   2.833   2.267   4.455 -0.6892 -0.2107  0.5218
  623UNK    F06 5605   3.017   2.355   4.529  0.7169 -0.3711 -0.5208
  623UNK    F07 5606   2.883   2.470   4.401  0.4409  0.2674  0.1638
  623UNK    H08 5607   3.050   2.365   4.245 -0.3317  0.5650  0.5265
  624UNK    F00 5608   3.393   1.365   3.516  0.3823  0.2492  0.2946
  624UNK    C01 5609   3.485   1.313   3.601 -0.6211  0.0552  0.6741
  624UNK    H02 5610   3.561   1.253   3.552  0.9578  2.7707 -0.4091
  624UNK    C03 5611   3.472   1.333   3.728 -0.1778 -0.2605  0.0768
  624UNK    C04 5612   3.577   1.298   3.821 -0.0869  0.0426 -0.6719
  624UNK    F05 5613   3.513   1.271   3.933 -0.1854 -0.7551 -0.0066
  624UNK    F06 5614   3.646   1.188   3.785  1.0361 -0.2296  0.1125
  624UNK    F07 5615   3.661   1.393   3.864  0.0513 -0.2464 -0.7905
  624UNK    H08 5616   3.376   1.349   3.776  0.6252  1.5869  1.1700
  625UNK    F00 5617   1.311   1.846   4.127 -0.3296 -0.7766 -0.4223
  625UNK    C01 5618   1.305   1.735   4.052  0.5609 -0.5276 -0.6666
  625UNK    H02 5619   1.389   1.674   4.085  0.3869  0.7214  2.4391
  625UNK    C03 5620   1.240   1.750   3.938 -0.1689  0.6518 -0.2849
  625UNK    C04 5621   1.215   1.632   3.855  0.1291  0.1796  0.6411
  625UNK    F05 5622   1.145   1.672   3.749 -0.9962  0.0329 -0.2525
  625UNK    F06 5623   1.335   1.586   3.796  0.2666 -0.2758 -0.0861
  625UNK    F07 5624   1.133   1.539   3.903  0.5447  0.2343  0.0761
  625UNK    H08 5625   1.188   1.842   3.920  1.1626  1.9628  2.0423
  626UNK    F00 5626   1.305   2.320   0.774 -0.7085 -0.0387  0.1817
  626UNK    C01 5627   1.192   2.379   0.747  0.3516 -0.6061 -1.2350
  626UNK    H02 5628   1.184   2.397   0.639  3.8030  0.5599 -1.4196
  626UNK    C03 5629   1.124   2.405   0.860  0.3250 -0.4542  0.3620
  626UNK    C04 5630   0.984   2.456   0.855  0.7272 -0.3797  0.0134
  626UNK    F05 5631   0.942   2.512   0.972 -0.2624  0.3673  0.4748
  626UNK    F06 5632   0.966   2.549   0.753 -0.7738 -0.0725 -0.0677
  626UNK    F07 5633   0.901   2.348   0.841 -0.0366 -0.3539 -0.1450
  626UNK    H08 5634   1.151   2.359   0.953 -0.8700  1.2118  1.6087
  627UNK    F00 5635   3.584   2.892   4.652 -0.2572  0.4637  0.6014
  627UNK    C01 5636   3.504   2.924   4.747 -0.4210 -0.4572  0.6219
  627UNK    H02 5637   3.445   2.836   4.776 -1.9856 -0.2804 -1.7168
  627UNK    C03 5638   3.465   3.045   4.762 -0.0971 -0.6735  0.0102
  627UNK    C04 5639   3.391   3.093   4.877 -0.3414 -0.3295 -0.1859
  627UNK    F05 5640   3.483   3.116   4.975  0.3116 -0.2817  0.2450
  627UNK    F06 5641   3.329   3.211   4.858 -0.9924  0.1661  0.1129
  627UNK    F07 5642   3.306   2.998   4.933  0.6656  0.4457  0.5770
  627UNK    H08 5643   3.453   3.112   4.679  2.5664 -0.6196 -0.4070
  628UNK    F00 5644   3.530   1.670   3.584  0.2786 -0.4427  0.0630
  628UNK    C01 5645   3.426   1.664   3.661 -0.8285  0.4740 -0.2318
  628UNK    H02 5646   3.340   1.623   3.607 -0.8402  2.4934 -1.8556
  628UNK    C03 5647   3.423   1.742   3.762  0.0957  0.2620 -0.3761
  628UNK    C04 5648   3.361   1.676   3.882 -0.7356 -0.7666  0.2848
  628UNK    F05 5649   3.320   1.782   3.960 -0.9695 -0.2245  0.4701
  628UNK    F06 5650   3.253   1.603   3.850  0.3491 -0.2894  0.4161
  628UNK    F07 5651   3.446   1.591   3.941 -0.0937  0.4599  0.0949
  628UNK    H08 5652   3.513   1.787   3.801  0.3441 -1.0740  0.6541
  629UNK    F00 5653   4.594   1.522   3.052  0.4444  0.6226 -1.0691
  629UNK    C01 5654   4.704   1.595   3.081  0.5235 -0.6686  0.9527
  629UNK    H02 5655   4.769   1.586   2.994 -1.2940 -1.8259 -0.3692
  629UNK    C03 5656   4.722   1.644   3.198 -0.4607 -0.6243 -0.1927
  629UNK    C04 5657   4.785   1.774   3.236  0.4267 -0.3079  0.4837
  629UNK    F05 5658   4.710   1.880   3.196  0.1741  0.2012  0.0582
  629UNK    F06 5659   4.785   1.797   3.371  0.3392  0.6092 -0.3099
  629UNK    F07 5660   4.913   1.790   3.199 -0.1338  0.1726  0.4293
  629UNK    H08 5661   4.664   1.611   3.282  0.1651 -0.0604  0.4774
  630UNK    F00 5662   3.082   4.065   0.103 -0.2665 -0.2794  0.2140
  630UNK    C01 5663   3.119   3.969   0.192  0.6091 -0.3057 -0.3379
  630UNK    H02 5664   3.211   4.006   0.237 -1.2118  2.1910  1.6726
  630UNK    C03 5665   3.093   3.841   0.157 -0.6363  0.2530  0.2893
  630UNK    C04 5666   2.970   3.794   0.090  0.2653 -0.8213  0.0888
  630UNK    F05 5667   2.963   3.837  -0.039 -0.1220  0.1373 -0.1598
  630UNK    F06 5668   2.967   3.657   0.092  0.0565  0.6124  0.0378
  630UNK    F07 5669   2.856   3.845   0.145 -0.6003  0.5771 -0.4140
  630UNK    H08 5670   3.153   3.760   0.196 -0.5678  0.2544  0.1867
  631UNK    F00 5671   2.106   2.148   2.757  0.3200  0.0562 -0.3772
  631UNK    C01 5672   2.010   2.084   2.685 -0.5890 -0.4095  0.7295
  631UNK    H02 5673   1.940   2.156   2.642 -0.9512 -0.5560  1.0686
  631UNK    C03 5674   2.023   1.955   2.661 -0.6539 -0.0644  0.0866
  631UNK    C04 5675   1.990   1.894   2.536 -1.1245 -0.0284 -0.0706
  631UNK    F05 5676   2.023   1.972   2.430  0.0063  0.5540  0.2837
  631UNK    F06 5677   2.058   1.775   2.529 -0.7268  0.3183  0.2887
  631UNK    F07 5678   1.858   1.866   2.536  0.1751 -0.2243 -0.1774
  631UNK    H08 5679   2.009   1.894   2.749 -0.0160  0.2848  0.4348
  632UNK    F00 5680   0.187   2.154   0.745  0.4170 -0.2433  0.5080
  632UNK    C01 5681   0.098   2.052   0.729 -0.2086  0.0963 -0.2380
  632UNK    H02 5682   0.155   1.960   0.717 -1.3729 -0.3396 -3.4096
  632UNK    C03 5683  -0.028   2.065   0.726 -0.3495  0.2646 -0.1307
  632UNK    C04 5684  -0.103   2.158   0.820 -0.2974  0.0302  0.1414
  632UNK    F05 5685  -0.124   2.275   0.760 -0.0045  0.2205  0.0713
  632UNK    F06 5686  -0.226   2.105   0.839 -0.3164  0.0989  0.2849
  632UNK    F07 5687  -0.039   2.174   0.935  0.0735  0.3814  0.0008
  632UNK    H08 5688  -0.092   2.008   0.660 -1.1733  1.1293 -0.1162
  633UNK    F00 5689   0.229   2.948   2.996  0.1701  0.4046  0.0539
  633UNK    C01 5690   0.248   2.820   2.949  0.0997 -0.3940 -0.7706
  633UNK    H02 5691   0.212   2.742   3.016 -1.0096  0.2756 -0.5643
  633UNK    C03 5692   0.265   2.782   2.828 -0.0516 -0.9549  0.5451
  633UNK    C04 5693   0.221   2.656   2.761  0.2615  0.0629 -0.1010
  633UNK    F05 5694   0.088   2.637   2.761  0.0682  0.0102  0.0367
  633UNK    F06 5695   0.260   2.641   2.631 -0.2521  0.5938 -0.1746
  633UNK    F07 5696   0.270   2.546   2.825  0.1489  0.1433  0.2153
  633UNK    H08 5697   0.348   2.832   2.780  0.4202 -0.9312  1.3680
  634UNK    F00 5698   0.890   1.235   1.152 -0.1114 -0.0452 -0.3122
  634UNK    C01 5699   0.850   1.220   1.026 -0.5371  0.5088 -0.2732
  634UNK    H02 5700   0.744   1.241   1.014 -1.2312 -2.4186 -0.0615
  634UNK    C03 5701   0.952   1.210   0.942  0.1141  1.0185 -0.2086
  634UNK    C04 5702   0.958   1.291   0.823 -0.6907 -0.4044  0.1914
  634UNK    F05 5703   1.050   1.245   0.739 -0.3049  0.1666  0.6602
  634UNK    F06 5704   0.836   1.282   0.765 -0.0773 -0.2695 -0.0349
  634UNK    F07 5705   0.974   1.424   0.842 -0.2041 -0.2197  0.1330
  634UNK    H08 5706   1.043   1.157   0.966 -0.0180  0.6148 -0.5761
  635UNK    F00 5707   2.886   3.567   4.637 -0.5154  0.1605  0.2151
  635UNK    C01 5708   2.997   3.493   4.641 -0.3910  0.1647 -0.7382
  635UNK    H02 5709   2.975   3.387   4.633 -2.0032  0.4890 -0.9784
  635UNK    C03 5710   3.114   3.552   4.609  0.3268  0.4018  0.3303
  635UNK    C04 5711   3.222   3.489   4.533  0.2336 -0.7792  0.1111
  635UNK    F05 5712   3.255   3.365   4.561  0.7337  0.2060  0.0218
  635UNK    F06 5713   3.177   3.497   4.406 -0.0711  0.0155 -0.4467
  635UNK    F07 5714   3.329   3.568   4.562 -0.3409 -0.0793  0.1702
  635UNK    H08 5715   3.130   3.656   4.632 -1.8720  0.7203  0.6027
  636UNK    F00 5716   3.253   3.737   1.576 -0.3260  0.0876 -0.2388
  636UNK    C01 5717   3.134   3.687   1.548  0.6618 -0.7139 -0.0357
  636UNK    H02 5718   3.114   3.599   1.610  0.3975  1.7596  3.7008
  636UNK    C03 5719   3.060   3.729   1.444 -0.5684  0.5862  0.0779
  636UNK    C04 5720   3.082   3.693   1.302  0.2163 -0.0847 -0.5196
  636UNK    F05 5721   3.041   3.804   1.231  0.3261  0.4531  0.2297
  636UNK    F06 5722   3.214   3.691   1.273  0.0058  0.2043  0.0006
  636UNK    F07 5723   3.019   3.574   1.257 -0.1865 -0.0255 -0.0425
  636UNK    H08 5724   2.996   3.815   1.461  0.0574  0.5870  2.8518
  637UNK    F00 5725   2.688   2.903   4.074  0.7193 -0.4665  0.2994
  637UNK    C01 5726   2.595   2.996   4.054 -0.1569 -0.3220 -1.1820
  637UNK    H02 5727   2.636   3.062   3.977 -0.6673 -1.2793 -2.3095
  637UNK    C03 5728   2.519   3.032   4.158  0.0486 -0.4820  0.3470
  637UNK    C04 5729   2.388   3.091   4.133 -0.0424 -1.0704 -0.9231
  637UNK    F05 5730   2.334   3.137   4.253  0.3020 -0.0998  0.0418
  637UNK    F06 5731   2.393   3.209   4.064  0.2644  0.2512  0.2363
  637UNK    F07 5732   2.300   3.008   4.069  0.0493  0.5250  0.5278
  637UNK    H08 5733   2.527   2.996   4.259  1.4465  0.3750  0.5637
  638UNK    F00 5734   1.296   1.280   2.354  0.3387  0.3029 -0.0523
  638UNK    C01 5735   1.250   1.210   2.249 -0.6173  0.5442  0.1944
  638UNK    H02 5736   1.293   1.110   2.249  1.2604  1.3011  1.4734
  638UNK    C03 5737   1.177   1.263   2.153  0.5898  0.2126 -0.1174
  638UNK    C04 5738   1.222   1.286   2.014  0.2677 -0.3985  0.1025
  638UNK    F05 5739   1.120   1.356   1.960  0.0786 -0.8811 -0.6648
  638UNK    F06 5740   1.340   1.357   1.995  0.3180  0.0961  0.0106
  638UNK    F07 5741   1.219   1.173   1.948 -0.2308  0.6937 -0.6198
  638UNK    H08 5742   1.109   1.341   2.183  1.8162  1.2597  0.0266
  639UNK    F00 5743   0.328   4.679   1.947 -1.1417  0.1301  0.1249
  639UNK    C01 5744   0.198   4.674   1.964 -0.2549 -0.5174 -0.4010
  639UNK    H02 5745   0.157   4.614   1.883  0.4454 -0.1481 -1.0400
  639UNK    C03 5746   0.149   4.789   2.004  0.5352 -0.3161 -0.4218
  639UNK    C04 5747   0.093   4.895   1.917 -0.4956  0.0379 -0.0513
  639UNK    F05 5748   0.122   4.881   1.786  0.6643  0.0589 -0.3706
  639UNK    F06 5749  -0.044   4.895   1.919  0.0634 -0.4600 -0.6119
  639UNK    F07 5750   0.145   5.018   1.948  0.2382 -0.2261 -0.0820
  639UNK    H08 5751   0.098   4.797   2.099 -2.4935  0.6207 -1.9976
  640UNK    F00 5752   0.225   0.917   2.477  0.0484  0.5408  0.2844
  640UNK    C01 5753   0.242   0.826   2.381  0.1462  0.0760  0.2420
  640UNK    H02 5754   0.247   0.730   2.432 -0.2559  0.7136  1.5307
  640UNK    C03 5755   0.317   0.849   2.273 -0.4899  0.1216 -0.4924
  640UNK    C04 5756   0.463   0.848   2.283  1.0130  0.1778 -0.0085
  640UNK    F05 5757   0.510   0.929   2.378 -0.1539 -0.0754 -0.1485
  640UNK    F06 5758   0.480   0.719   2.323 -0.1574  0.0669  0.3704
  640UNK    F07 5759   0.526   0.875   2.170  0.1775  0.1660 -0.1665
  640UNK    H08 5760   0.284   0.824   2.173 -0.9452  0.9378 -0.5566
  641UNK    F00 5761   3.822   2.838   3.698  0.2498  0.0448 -0.2089
  641UNK    C01 5762   3.865   2.712   3.669 -0.0373 -0.4314 -0.4881
  641UNK    H02 5763   3.974   2.709   3.659 -0.1873 -0.2738 -2.7421
  641UNK    C03 5764   3.771   2.619   3.672 -0.3603  0.4752 -0.9023
  641UNK    C04 5765   3.724   2.538   3.558 -0.4819 -0.4992  0.0349
  641UNK    F05 5766   3.708   2.608   3.443  0.0941 -0.0997  0.0853
  641UNK    F06 5767   3.808   2.434   3.533 -0.0612 -0.1710  0.4651
  641UNK    F07 5768   3.601   2.489   3.593  0.7192  0.2814  0.1911
  641UNK    H08 5769   3.694   2.652   3.740  0.0587  1.6058 -0.9529
  642UNK    F00 5770   2.896   0.975   0.170  0.6253 -0.2865 -0.2389
  642UNK    C01 5771   2.784   1.018   0.233 -0.3302  0.6517 -0.2715
  642UNK    H02 5772   2.795   1.024   0.341  1.7604  1.5654 -0.4843
  642UNK    C03 5773   2.670   1.041   0.169  0.3423 -0.3202 -0.7518
  642UNK    C04 5774   2.557   1.121   0.226 -0.5349  0.1053 -1.1471
  642UNK    F05 5775   2.485   1.059   0.325  0.0064 -0.2914 -0.4825
  642UNK    F06 5776   2.614   1.233   0.283 -0.1733  0.2660 -0.4169
  642UNK    F07 5777   2.480   1.178   0.134 -0.1860  0.1332  0.2972
  642UNK    H08 5778   2.648   0.978   0.084 -0.7390  0.9498 -1.4395
  643UNK    F00 5779   4.616   3.815   3.290  0.2544  0.1790 -0.1504
  643UNK    C01 5780   4.674   3.726   3.367 -0.4263 -0.4844  0.7623
  643UNK    H02 5781   4.783   3.731   3.368 -0.3924 -0.9446  0.0522
  643UNK    C03 5782   4.594   3.687   3.465 -0.0169 -0.5809 -0.7152
  643UNK    C04 5783   4.521   3.780   3.552  0.1501 -0.0945 -0.6117
  643UNK    F05 5784   4.585   3.893   3.581  0.7017  0.0491 -0.1412
  643UNK    F06 5785   4.404   3.816   3.497 -0.1493  0.5022 -0.1528
  643UNK    F07 5786   4.482   3.722   3.667 -0.1774 -0.0305  0.4645
  643UNK    H08 5787   4.604   3.587   3.502  1.6152 -0.3634 -0.4853
  644UNK    F00 5788   4.441   0.527   2.989 -0.1644 -0.5877 -0.2429
  644UNK    C01 5789   4.472   0.640   3.053  0.4588  0.6195  0.4354
  644UNK    H02 5790   4.387   0.670   3.115  0.0887  2.0778 -0.7053
  644UNK    C03 5791   4.575   0.710   3.013  0.2886 -0.3184  0.0638
  644UNK    C04 5792   4.647   0.804   3.092  0.2307  0.2261 -0.1212
  644UNK    F05 5793   4.571   0.884   3.165  0.2182  0.0165 -0.2934
  644UNK    F06 5794   4.737   0.744   3.173  0.1017 -0.5335 -0.3236
  644UNK    F07 5795   4.711   0.888   3.013 -0.2453  0.2557  0.6472
  644UNK    H08 5796   4.612   0.694   2.913 -1.8652 -1.3933 -0.6293
  645UNK    F00 5797   3.849   0.314   3.697 -0.1004  0.5706  0.1152
  645UNK    C01 5798   3.774   0.344   3.797  0.0812  0.0381 -0.0674
  645UNK    H02 5799   3.752   0.251   3.849  2.1014 -1.5511 -1.8337
  645UNK    C03 5800   3.729   0.470   3.815 -0.0800  0.0192  0.0828
  645UNK    C04 5801   3.609   0.501   3.889  0.1807  0.1679 -0.1008
  645UNK    F05 5802   3.607   0.435   4.008  0.5978 -0.0600 -0.5205
  645UNK    F06 5803   3.594   0.632   3.924 -0.0319  0.5667  0.3320
  645UNK    F07 5804   3.490   0.476   3.825 -0.5552  0.2393  0.0510
  645UNK    H08 5805   3.763   0.538   3.737 -3.8247  1.6902 -0.3157
  646UNK    F00 5806   4.513   1.074   1.145 -0.1979  0.1805  0.3147
  646UNK    C01 5807   4.623   1.096   1.221 -0.3227  0.5952  0.0753
  646UNK    H02 5808   4.716   1.089   1.165 -0.2958 -0.5237  0.2309
  646UNK    C03 5809   4.609   1.156   1.336 -0.6751 -0.5647 -0.1022
  646UNK    C04 5810   4.711   1.233   1.410 -0.0806 -0.1262  0.7703
  646UNK    F05 5811   4.744   1.350   1.352 -0.4926 -0.0213 -0.3873
  646UNK    F06 5812   4.679   1.250   1.537  0.1740 -0.2000  0.3993
  646UNK    F07 5813   4.820   1.158   1.408  0.1495 -0.1876  0.0429
  646UNK    H08 5814   4.520   1.214   1.354 -0.3911 -0.3600  0.6806
  647UNK    F00 5815   4.079   0.702   0.180  0.1017  0.0238  0.0442
  647UNK    C01 5816   4.115   0.602   0.266 -0.1566 -0.3285 -0.2993
  647UNK    H02 5817   4.041   0.526   0.291 -0.3517  0.2937  1.1346
  647UNK    C03 5818   4.229   0.610   0.335 -0.1366  0.7072  0.5269
  647UNK    C04 5819   4.327   0.498   0.328  0.1941  0.0497  0.1420
  647UNK    F05 5820   4.395   0.525   0.216 -0.0883 -0.0060  0.0375
  647UNK    F06 5821   4.420   0.480   0.422  0.0162 -0.0051  0.1272
  647UNK    F07 5822   4.268   0.371   0.322  0.6853 -0.1818 -0.0975
  647UNK    H08 5823   4.272   0.703   0.370 -0.0433  0.0600  2.2328
  648UNK    F00 5824   3.300   1.208   2.072  0.3106  0.1863 -0.2038
  648UNK    C01 5825   3.204   1.294   2.033  0.1117  0.2709  0.3457
  648UNK    H02 5826   3.101   1.258   2.032  0.3058 -0.3694 -1.7265
  648UNK    C03 5827   3.238   1.408   1.971 -0.1326  0.5991  0.0215
  648UNK    C04 5828   3.137   1.515   1.963  1.5040  0.3590  0.0823
  648UNK    F05 5829   3.132   1.578   2.080  0.0623 -0.1336  0.3918
  648UNK    F06 5830   3.172   1.605   1.871  0.0948 -0.0977  0.1212
  648UNK    F07 5831   3.011   1.476   1.937  0.0444 -0.3433  0.6147
  648UNK    H08 5832   3.310   1.414   1.891  0.4050  1.9069  0.5639
  649UNK    F00 5833   1.224   2.784   1.517 -0.0536  0.0613 -0.0829
  649UNK    C01 5834   1.248   2.915   1.524 -0.8447  0.0743 -0.0783
  649UNK    H02 5835   1.302   2.923   1.618 -1.2671  0.3153  0.1443
  649UNK    C03 5836   1.202   2.994   1.431  0.3014 -0.4362 -0.2747
  649UNK    C04 5837   1.269   3.115   1.380  0.4908  0.1304  0.2629
  649UNK    F05 5838   1.339   3.174   1.475  0.2898  0.3185 -0.4813
  649UNK    F06 5839   1.366   3.092   1.286 -0.1673  0.2927 -1.3657
  649UNK    F07 5840   1.186   3.209   1.325  0.0165  0.1808  0.0766
  649UNK    H08 5841   1.135   2.960   1.353 -0.1337  0.5370 -0.3416
  650UNK    F00 5842   2.223   2.580   3.467  0.4708 -0.1487  0.3489
  650UNK    C01 5843   2.208   2.517   3.347  0.0600 -0.7706  0.3679
  650UNK    H02 5844   2.211   2.591   3.268 -0.1224  1.6856  2.5259
  650UNK    C03 5845   2.238   2.383   3.345  0.0398 -0.4775  0.0955
  650UNK    C04 5846   2.275   2.303   3.221 -0.2732 -0.7866 -0.2630
  650UNK    F05 5847   2.225   2.185   3.223  0.2699  0.0883  0.4298
  650UNK    F06 5848   2.217   2.352   3.107  0.0948 -0.0518  0.2935
  650UNK    F07 5849   2.410   2.304   3.205 -0.6619  0.3170  0.5883
  650UNK    H08 5850   2.240   2.321   3.433  0.3534 -1.1824 -0.3930
  651UNK    F00 5851   3.888   4.681   3.124 -0.1577 -0.0368  0.3924
  651UNK    C01 5852   3.777   4.653   3.191 -0.0370  0.4677 -0.3713
  651UNK    H02 5853   3.752   4.551   3.162  1.6619  0.8588 -3.6486
  651UNK    C03 5854   3.720   4.740   3.271 -0.1843  0.0259 -0.6578
  651UNK    C04 5855   3.595   4.706   3.349  0.3613 -0.2986  0.6677
  651UNK    F05 5856   3.539   4.823   3.385 -0.1926  0.3166 -0.6727
  651UNK    F06 5857   3.496   4.638   3.285  0.4049  0.3399  0.4025
  651UNK    F07 5858   3.619   4.631   3.458 -0.4251 -0.9528  0.0615
  651UNK    H08 5859   3.739   4.843   3.245 -0.5187  0.1219 -0.5293
  652UNK    F00 5860   4.821   0.942   4.044  0.0300 -0.0001  0.1744
  652UNK    C01 5861   4.795   1.019   4.145 -0.3440  0.4837  0.2608
  652UNK    H02 5862   4.726   1.101   4.126 -0.4463  0.1158 -1.0292
  652UNK    C03 5863   4.817   0.953   4.256  0.4078 -0.5853  0.9992
  652UNK    C04 5864   4.946   0.928   4.319 -0.0366  0.3807 -0.3457
  652UNK    F05 5865   4.984   1.047   4.379  0.7945  0.1009 -0.1970
  652UNK    F06 5866   4.928   0.840   4.418 -0.6281 -0.0400 -0.0587
  652UNK    F07 5867   5.041   0.896   4.230 -0.3379 -0.0018 -0.8047
  652UNK    H08 5868   4.735   0.897   4.300  0.4445 -0.9735  0.5779
  653UNK    F00 5869   1.353   1.754   1.060 -0.2579 -0.1206  0.2226
  653UNK    C01 5870   1.409   1.712   1.179 -0.7544 -0.3326  0.0571
  653UNK    H02 5871   1.380   1.610   1.206 -2.1153  0.2890  1.0555
  653UNK    C03 5872   1.466   1.800   1.263  0.1839 -0.2788 -0.0870
  653UNK    C04 5873   1.554   1.767   1.375 -0.1000 -0.2386  0.4574
  653UNK    F05 5874   1.510   1.660   1.438  0.1977  0.0622 -0.0973
  653UNK    F06 5875   1.676   1.721   1.332 -0.1555 -0.6215 -0.0631
  653UNK    F07 5876   1.576   1.863   1.464  0.0890 -1.0565 -0.4837
  653UNK    H08 5877   1.465   1.904   1.236  2.1450 -0.6315 -1.8415
  654UNK    F00 5878   1.502   1.142   4.388 -0.2687  0.1035  0.1782
  654UNK    C01 5879   1.520   1.275   4.364  0.1786 -0.2398 -0.5756
  654UNK    H02 5880   1.570   1.323   4.449  1.9558 -1.2907 -0.9651
  654UNK    C03 5881   1.522   1.307   4.234  0.0308 -0.1111 -1.1058
  654UNK    C04 5882   1.412   1.358   4.152  0.5653  0.6866  0.6331
  654UNK    F05 5883   1.365   1.473   4.197 -0.0782  0.6794  0.2281
  654UNK    F06 5884   1.453   1.352   4.020 -0.3362 -0.4792  0.3607
  654UNK    F07 5885   1.311   1.266   4.140 -0.3505  0.3790  0.5148
  654UNK    H08 5886   1.616   1.294   4.182  0.3347 -1.5434 -0.2410
  655UNK    F00 5887   0.362   3.861   0.656 -0.1010  0.0842  0.2921
  655UNK    C01 5888   0.339   3.993   0.680  0.3787 -0.2773 -0.2144
  655UNK    H02 5889   0.407   4.061   0.630  1.7407 -1.9713 -0.7413
  655UNK    C03 5890   0.256   4.020   0.781 -0.5991 -0.7235 -0.4331
  655UNK    C04 5891   0.293   4.004   0.917 -0.3293 -0.2394  0.1712
  655UNK    F05 5892   0.195   4.044   1.001  0.6229 -0.5211 -0.1247
  655UNK    F06 5893   0.306   3.870   0.947 -0.0600 -0.1872  0.6537
  655UNK    F07 5894   0.409   4.076   0.948  0.3380  0.5317 -0.0946
  655UNK    H08 5895   0.177   4.094   0.774 -0.1572  0.0461  1.9158
  656UNK    F00 5896   2.098   3.661   1.575 -0.3663  0.1564  0.2197
  656UNK    C01 5897   2.062   3.530   1.568  0.5876 -0.2419 -0.0011
  656UNK    H02 5898   1.958   3.536   1.535  0.5276  1.3356  0.4067
  656UNK    C03 5899   2.144   3.428   1.598 -0.0337  0.0549  0.6883
  656UNK    C04 5900   2.176   3.390   1.734 -0.4156 -0.1144  0.7889
  656UNK    F05 5901   2.071   3.341   1.797  0.0955 -0.1292 -0.0898
  656UNK    F06 5902   2.271   3.295   1.718  0.1944 -0.6146 -0.3348
  656UNK    F07 5903   2.230   3.492   1.811  0.0588  0.1158 -0.0392
  656UNK    H08 5904   2.137   3.339   1.538  0.4768 -0.4930  1.4251
  657UNK    F00 5905   3.709   4.108   1.706 -0.3156 -0.3284  0.2602
  657UNK    C01 5906   3.815   4.146   1.627  0.6864  0.4438  0.6899
  657UNK    H02 5907   3.821   4.255   1.625 -2.4525  0.7342  1.7284
  657UNK    C03 5908   3.912   4.058   1.598  0.4279  0.1423  0.0844
  657UNK    C04 5909   3.885   3.939   1.522  0.2212 -0.5695 -0.1500
  657UNK    F05 5910   3.997   3.866   1.521 -0.2988  0.6861  0.7530
  657UNK    F06 5911   3.785   3.866   1.572 -0.4489  0.2214 -0.1560
  657UNK    F07 5912   3.859   3.956   1.392  0.4403  0.3089 -0.4704
  657UNK    H08 5913   3.991   4.040   1.669  0.8430  0.8898 -0.1740
  658UNK    F00 5914   4.098   1.778   2.480 -0.5691 -0.1547 -0.2874
  658UNK    C01 5915   4.190   1.859   2.437 -0.1905  0.7711  0.3711
  658UNK    H02 5916   4.182   1.876   2.329  3.0354 -4.1514 -0.9701
  658UNK    C03 5917   4.297   1.882   2.510  0.4081  0.2283  0.2705
  658UNK    C04 5918   4.357   2.021   2.504  0.0772  0.3522 -0.1622
  658UNK    F05 5919   4.282   2.105   2.582  0.4482 -0.1927 -0.0685
  658UNK    F06 5920   4.485   2.027   2.548 -0.2632 -0.2015  0.0850
  658UNK    F07 5921   4.348   2.074   2.377 -0.4470 -0.5259  0.3189
  658UNK    H08 5922   4.327   1.839   2.604  1.1445  2.7410  1.2358
  659UNK    F00 5923   4.098   3.136   3.141  0.0456  1.0824 -0.3258
  659UNK    C01 5924   4.234   3.117   3.130  0.4367  0.1678 -0.8541
  659UNK    H02 5925   4.284   3.154   3.220  1.4436  0.0430 -1.3536
  659UNK    C03 5926   4.293   3.082   3.018 -0.0436  0.8561 -0.4907
  659UNK    C04 5927   4.352   3.185   2.931  0.4556 -0.2704  0.9693
  659UNK    F05 5928   4.378   3.146   2.800 -0.0397  0.4557 -0.0592
  659UNK    F06 5929   4.259   3.286   2.908  0.0455 -0.0797  0.3101
  659UNK    F07 5930   4.463   3.243   2.987 -0.1245  0.1233  0.0859
  659UNK    H08 5931   4.241   3.008   2.959  2.9269 -1.0891 -0.9015
  660UNK    F00 5932   0.282   2.414   3.622 -0.2275  0.1910  0.4154
  660UNK    C01 5933   0.393   2.379   3.695 -0.6684 -0.3186 -0.0707
  660UNK    H02 5934   0.378   2.409   3.798 -0.7209 -1.5439  0.2909
  660UNK    C03 5935   0.508   2.377   3.628 -0.5568 -0.2382  0.4700
  660UNK    C04 5936   0.616   2.281   3.659  0.0310  0.2585  0.4074
  660UNK    F05 5937   0.727   2.321   3.595  0.0193  0.4084  0.5445
  660UNK    F06 5938   0.641   2.300   3.789 -0.6334 -0.3194 -0.3231
  660UNK    F07 5939   0.597   2.149   3.636  0.2703 -0.1078  0.1096
  660UNK    H08 5940   0.536   2.458   3.562 -2.1694 -0.0919 -0.0759
  661UNK    F00 5941   0.954   2.499   3.493 -0.2318  0.4503 -0.0011
  661UNK    C01 5942   0.933   2.632   3.516 -0.1258 -0.5163 -0.1812
  661UNK    H02 5943   0.950   2.692   3.427 -1.6480 -0.1593 -0.2607
  661UNK    C03 5944   0.858   2.676   3.618 -0.2294  0.2565  0.8531
  661UNK    C04 5945   0.838   2.821   3.654  0.8183  0.1128 -0.0954
  661UNK    F05 5946   0.947   2.900   3.635  0.1101  0.1001  0.4040
  661UNK    F06 5947   0.735   2.872   3.582 -0.0052 -0.0872 -0.1866
  661UNK    F07 5948   0.796   2.820   3.785  0.8098  0.4698 -0.0771
  661UNK    H08 5949   0.791   2.610   3.670  1.0505 -1.5950  0.2536
  662UNK    F00 5950   0.653   4.224   1.575 -0.2092 -0.4426  0.3673
  662UNK    C01 5951   0.541   4.197   1.505  0.0409  0.3388  0.5035
  662UNK    H02 5952   0.560   4.108   1.445  1.2860 -0.1510  1.5603
  662UNK    C03 5953   0.426   4.248   1.548 -0.1911 -0.2098  0.7848
  662UNK    C04 5954   0.296   4.186   1.506  0.5120 -0.1224  0.5785
  662UNK    F05 5955   0.201   4.277   1.515 -0.0855  0.5041 -0.1828
  662UNK    F06 5956   0.309   4.147   1.379  0.0759 -0.1964  0.5339
  662UNK    F07 5957   0.260   4.084   1.588 -0.0046 -0.6402 -0.0629
  662UNK    H08 5958   0.414   4.355   1.556 -0.5055 -0.1960  0.2323
  663UNK    F00 5959   1.616   2.282   3.889 -0.2276  0.1878 -0.0751
  663UNK    C01 5960   1.708   2.355   3.834 -0.0846 -0.5637 -0.0653
  663UNK    H02 5961   1.681   2.460   3.842 -1.7206 -1.0718  1.7098
  663UNK    C03 5962   1.828   2.311   3.814 -0.1393 -0.5217 -0.3505
  663UNK    C04 5963   1.928   2.400   3.757  0.3510  0.1527  0.1144
  663UNK    F05 5964   1.886   2.477   3.655  0.6272 -0.4225 -0.1724
  663UNK    F06 5965   1.972   2.488   3.850  0.0997  0.1530 -0.0347
  663UNK    F07 5966   2.039   2.329   3.713 -0.5950 -0.1930 -0.2148
  663UNK    H08 5967   1.878   2.257   3.893 -2.3389 -0.1189  1.4599
  664UNK    F00 5968   0.539   1.960   4.454  0.0949  0.4038  0.4395
  664UNK    C01 5969   0.617   1.845   4.446 -0.1499 -0.1318 -0.1303
  664UNK    H02 5970   0.565   1.773   4.382 -1.6666  0.3035  0.5850
  664UNK    C03 5971   0.739   1.832   4.494  0.7050 -0.0639 -0.2090
  664UNK    C04 5972   0.840   1.941   4.491 -0.5353  0.3905  0.1629
  664UNK    F05 5973   0.849   1.988   4.361 -0.0889 -0.3839 -0.2469
  664UNK    F06 5974   0.807   2.037   4.579 -0.2940 -0.4634 -0.1104
  664UNK    F07 5975   0.965   1.893   4.516  0.0281  0.3584 -0.4613
  664UNK    H08 5976   0.764   1.748   4.557  0.0815 -1.0669 -1.2478
  665UNK    F00 5977   1.448   2.090   1.068  0.7798  0.2945 -0.2591
  665UNK    C01 5978   1.445   2.103   0.936 -0.1179  0.0266  0.5008
  665UNK    H02 5979   1.477   2.203   0.905  0.6037  0.1278  1.5029
  665UNK    C03 5980   1.404   2.000   0.861 -0.0131  0.1397 -0.0246
  665UNK    C04 5981   1.255   1.976   0.842  0.1738 -0.1338  0.1641
  665UNK    F05 5982   1.242   1.849   0.797 -0.4534  0.1106  0.6723
  665UNK    F06 5983   1.170   1.990   0.953 -0.1665  0.2315 -0.3030
  665UNK    F07 5984   1.211   2.067   0.748  0.1680 -0.0801  0.1111
  665UNK    H08 5985   1.461   1.909   0.850  0.6973  0.6123 -0.3732
  666UNK    F00 5986   1.826   1.643   1.592  0.5838 -0.4465  0.2800
  666UNK    C01 5987   1.803   1.537   1.669 -0.0906  0.6096 -0.1311
  666UNK    H02 5988   1.893   1.499   1.716 -2.0326  0.4170  3.8886
  666UNK    C03 5989   1.684   1.520   1.718  0.1067  0.3161 -0.2317
  666UNK    C04 5990   1.574   1.452   1.649  0.1496 -0.0416 -0.5977
  666UNK    F05 5991   1.464   1.519   1.692 -0.6360  0.1348 -0.2849
  666UNK    F06 5992   1.592   1.449   1.517 -0.5553 -0.1339  0.0417
  666UNK    F07 5993   1.560   1.323   1.696  0.1219 -0.7057 -0.0722
  666UNK    H08 5994   1.641   1.591   1.787 -0.0626 -0.3829  0.3937
  667UNK    F00 5995   0.000   3.271   2.662 -0.0251 -0.2044 -0.6371
  667UNK    C01 5996   0.033   3.155   2.718 -0.1310 -0.1454 -0.4079
  667UNK    H02 5997  -0.036   3.142   2.802 -1.0789 -0.7261 -1.2539
  667UNK    C03 5998   0.134   3.075   2.676  0.0135 -0.1185  0.1765
  667UNK    C04 5999   0.275   3.117   2.675 -0.6161 -0.0756 -0.6590
  667UNK    F05 6000   0.303   3.228   2.608 -0.2787 -0.3849  0.1267
  667UNK    F06 6001   0.319   3.142   2.803 -0.2293  0.0880 -0.4123
  667UNK    F07 6002   0.348   3.023   2.612 -0.2104 -0.4401  0.2644
  667UNK    H08 6003   0.121   3.001   2.598  0.5051 -2.0316  1.8456
  668UNK    F00 6004   0.662   3.394   3.474  0.0080 -0.0799 -0.4484
  668UNK    C01 6005   0.599   3.392   3.592 -0.1197  0.3155 -0.1994
  668UNK    H02 6006   0.663   3.434   3.669  1.4321 -0.3432 -1.0738
  668UNK    C03 6007   0.534   3.284   3.620 -0.0873 -0.0926 -0.5164
  668UNK    C04 6008   0.593   3.169   3.682  0.1571  0.1413 -0.3689
  668UNK    F05 6009   0.507   3.070   3.681  0.1350  0.2897 -0.1336
  668UNK    F06 6010   0.709   3.146   3.623  0.4868  0.6432 -0.4498
  668UNK    F07 6011   0.614   3.194   3.813 -0.6953  0.7445 -0.0491
  668UNK    H08 6012   0.447   3.253   3.565  0.3275 -0.6308 -0.8796
  669UNK    F00 6013   4.155   0.464   1.403 -0.3854  0.1442 -0.1904
  669UNK    C01 6014   4.262   0.517   1.468 -0.8277 -0.3989  0.5153
  669UNK    H02 6015   4.351   0.463   1.437 -0.7633  1.3460 -2.8463
  669UNK    C03 6016   4.255   0.621   1.558 -0.0773  0.4724 -0.2174
  669UNK    C04 6017   4.362   0.718   1.591  0.2125 -0.0380  0.3856
  669UNK    F05 6018   4.391   0.814   1.501  0.4492 -0.0449  0.3477
  669UNK    F06 6019   4.322   0.796   1.691 -0.2156 -0.3924 -0.5348
  669UNK    F07 6020   4.476   0.652   1.640 -0.4309  0.2453 -0.7784
  669UNK    H08 6021   4.156   0.647   1.594 -0.7709  0.1417 -1.7813
  670UNK    F00 6022   3.340   2.173   2.319  0.5523  0.1341  0.2874
  670UNK    C01 6023   3.266   2.114   2.224 -0.2592  0.6101  1.0516
  670UNK    H02 6024   3.159   2.118   2.245 -0.9207 -1.2434 -1.4179
  670UNK    C03 6025   3.319   2.075   2.109  0.5184  0.2399  0.4038
  670UNK    C04 6026   3.349   1.936   2.087  1.0268  0.5568 -0.5286
  670UNK    F05 6027   3.354   1.850   2.193  0.0357 -0.7521 -0.0362
  670UNK    F06 6028   3.253   1.885   2.007 -0.0433  0.1152  0.2607
  670UNK    F07 6029   3.461   1.934   2.010  0.2667  0.2230  0.6958
  670UNK    H08 6030   3.334   2.136   2.021  1.3245 -0.4689  0.0315
  671UNK    F00 6031   3.628   3.776   1.846 -0.2213  0.4847  0.4964
  671UNK    C01 6032   3.492   3.781   1.862 -0.1791 -0.6826  0.8611
  671UNK    H02 6033   3.450   3.748   1.767  0.0717  0.5114  0.3216
  671UNK    C03 6034   3.430   3.874   1.939 -0.7512  0.4024 -0.1686
  671UNK    C04 6035   3.306   3.860   2.009  0.0477  0.3758  0.3595
  671UNK    F05 6036   3.256   3.984   2.020  0.0539 -0.0111 -0.4551
  671UNK    F06 6037   3.220   3.776   1.950 -0.9388 -0.4395  0.3655
  671UNK    F07 6038   3.321   3.813   2.134  0.2101  0.0442 -0.0131
  671UNK    H08 6039   3.495   3.945   1.988 -1.9751  1.2222  0.2909
  672UNK    F00 6040   0.470   2.985   4.706  0.0657 -0.1238  0.4921
  672UNK    C01 6041   0.452   2.927   4.592  0.1910 -0.2100 -0.0455
  672UNK    H02 6042   0.437   3.000   4.514 -3.6462  0.3945  1.0831
  672UNK    C03 6043   0.423   2.793   4.589 -0.1188 -0.6678  0.0596
  672UNK    C04 6044   0.457   2.703   4.478 -0.7446 -0.9465 -0.0010
  672UNK    F05 6045   0.422   2.745   4.355  0.2986 -0.0048 -0.1476
  672UNK    F06 6046   0.587   2.667   4.462  0.2237  0.0256 -0.1941
  672UNK    F07 6047   0.394   2.586   4.490 -0.0383 -0.0671  0.0294
  672UNK    H08 6048   0.369   2.751   4.674 -0.9649 -0.5135 -0.3902
  673UNK    F00 6049   4.273   0.610   2.006 -0.1598 -0.1896  0.0880
  673UNK    C01 6050   4.281   0.743   2.021  0.0250  0.1497  0.4238
  673UNK    H02 6051   4.360   0.791   1.963  0.2213  0.1979  0.7289
  673UNK    C03 6052   4.179   0.808   2.072  0.0235  0.3799  0.7901
  673UNK    C04 6053   4.166   0.952   2.043  0.4548  0.2599 -0.4739
  673UNK    F05 6054   4.142   0.950   1.910  0.3142  0.2823  0.2057
  673UNK    F06 6055   4.069   1.017   2.103 -0.0123 -0.1027 -0.1056
  673UNK    F07 6056   4.277   1.021   2.070  0.3941  0.0068  0.1216
  673UNK    H08 6057   4.081   0.763   2.065 -0.4824  1.6289 -0.8332
  674UNK    F00 6058   3.720   1.700   4.674  0.3794 -0.3883  0.3193
  674UNK    C01 6059   3.804   1.742   4.771 -0.2476  0.1045 -1.3176
  674UNK    H02 6060   3.878   1.662   4.772  1.2154  1.3484  1.6752
  674UNK    C03 6061   3.830   1.867   4.807  0.4617 -0.0622 -0.2054
  674UNK    C04 6062   3.756   1.947   4.907 -0.6613  0.2935 -0.5093
  674UNK    F05 6063   3.779   1.923   5.038  0.4006  0.3462  0.0962
  674UNK    F06 6064   3.792   2.072   4.891  0.3544 -0.1364  0.2553
  674UNK    F07 6065   3.622   1.947   4.896  0.4829 -0.0136  0.0437
  674UNK    H08 6066   3.878   1.928   4.732  0.2275  0.0692 -0.2500
  675UNK    F00 6067   1.679   2.386   3.294 -0.2356  0.3306  0.3465
  675UNK    C01 6068   1.779   2.384   3.383  0.6179 -0.2366 -0.2659
  675UNK    H02 6069   1.847   2.468   3.389  1.7566 -1.2454  2.6160
  675UNK    C03 6070   1.791   2.285   3.473  0.2000 -0.3323  0.7485
  675UNK    C04 6071   1.847   2.151   3.443 -0.1139  0.1161  0.0414
  675UNK    F05 6072   1.978   2.173   3.414 -0.2986 -0.0337  0.1867
  675UNK    F06 6073   1.840   2.075   3.551  0.8180  0.2611 -0.7861
  675UNK    F07 6074   1.791   2.087   3.338  0.8705 -0.5391  0.0789
  675UNK    H08 6075   1.724   2.284   3.558  1.2383 -1.6187  1.5930
  676UNK    F00 6076   2.361   2.138   2.220  0.1370  0.0558 -0.1235
  676UNK    C01 6077   2.354   2.008   2.242 -0.8353 -0.0461 -0.3312
  676UNK    H02 6078   2.455   1.968   2.256 -1.4676 -1.4416  0.4728
  676UNK    C03 6079   2.256   1.935   2.194 -0.3893 -0.1143 -0.2154
  676UNK    C04 6080   2.261   1.896   2.053  0.0158  0.1548 -0.4343
  676UNK    F05 6081   2.353   1.801   2.027  0.4034 -0.3433 -0.3733
  676UNK    F06 6082   2.148   1.835   2.004 -0.5760  0.0663 -0.6470
  676UNK    F07 6083   2.270   2.008   1.975 -0.1908 -0.2277  0.5866
  676UNK    H08 6084   2.163   1.927   2.249 -1.0395 -1.6897 -1.4501
  677UNK    F00 6085   0.081   4.816   3.400 -0.4608 -0.2711 -0.7399
  677UNK    C01 6086   0.209   4.827   3.454 -0.8769 -0.2324  0.7765
  677UNK    H02 6087   0.255   4.921   3.423 -0.9572 -0.5009 -0.1756
  677UNK    C03 6088   0.274   4.717   3.474 -0.1746  0.8535 -0.5991
  677UNK    C04 6089   0.364   4.701   3.589 -0.1933 -0.1358 -0.4882
  677UNK    F05 6090   0.443   4.812   3.588  0.2755  0.1558 -0.1597
  677UNK    F06 6091   0.301   4.695   3.707  0.0234  0.1836  0.2158
  677UNK    F07 6092   0.453   4.596   3.570 -0.4438  0.2369  0.0639
  677UNK    H08 6093   0.303   4.652   3.392 -1.5784 -0.5055 -0.0717
  678UNK    F00 6094   0.568   3.591   2.994 -0.5435 -0.4320 -0.1490
  678UNK    C01 6095   0.453   3.629   2.942  0.9214 -0.0182  0.5671
  678UNK    H02 6096   0.458   3.603   2.836 -0.5241 -1.4685  0.8320
  678UNK    C03 6097   0.351   3.662   3.024 -0.5751  0.0262  0.1504
  678UNK    C04 6098   0.206   3.638   3.000  0.4212  0.4293 -0.1763
  678UNK    F05 6099   0.127   3.733   3.061  0.3671  0.8896  0.5678
  678UNK    F06 6100   0.177   3.652   2.863 -0.1078  0.4653  0.3937
  678UNK    F07 6101   0.171   3.510   3.029  0.5230 -0.0616 -0.3879
  678UNK    H08 6102   0.369   3.714   3.117 -0.3911  0.6674 -0.2356
  679UNK    F00 6103   3.867   2.838   0.073 -0.3807  0.2836 -0.2324
  679UNK    C01 6104   3.856   2.853  -0.056  0.4374  0.0065 -0.3449
  679UNK    H02 6105   3.807   2.943  -0.092  0.9042  1.2344  1.9599
  679UNK    C03 6106   3.858   2.740  -0.125  0.2097  0.1235 -0.4732
  679UNK    C04 6107   3.911   2.719  -0.261  0.3386 -0.2214 -0.4956
  679UNK    F05 6108   3.916   2.828  -0.336 -0.5776 -0.0471 -0.4985
  679UNK    F06 6109   4.034   2.667  -0.264  0.0482 -0.5101 -0.5093
  679UNK    F07 6110   3.834   2.619  -0.311  0.1007 -0.1862  0.1444
  679UNK    H08 6111   3.823   2.651  -0.075  0.2091 -0.0411 -0.7636
  680UNK    F00 6112   0.697   4.762   4.568  0.0663  0.8046 -0.1480
  680UNK    C01 6113   0.771   4.645   4.571  0.3531 -0.1145 -0.0245
  680UNK    H02 6114   0.720   4.569   4.630 -2.6710  2.3766  0.8651
  680UNK    C03 6115   0.892   4.641   4.509 -0.5693 -0.0112  0.0146
  680UNK    C04 6116   0.968   4.515   4.483  0.0518  0.1540  0.5742
  680UNK    F05 6117   0.979   4.428   4.587 -0.3623 -0.0887  0.2685
  680UNK    F06 6118   0.909   4.435   4.387  0.0042 -0.4997 -0.2732
  680UNK    F07 6119   1.097   4.533   4.440  0.3630  0.3814 -0.1541
  680UNK    H08 6120   0.955   4.721   4.543 -1.0480  0.7899 -0.9325
  681UNK    F00 6121   2.281   3.656   2.517 -0.1920  0.5983 -0.4012
  681UNK    C01 6122   2.156   3.682   2.495  0.5332  0.5132  0.3720
  681UNK    H02 6123   2.087   3.665   2.577 -1.5255  4.1751 -0.3708
  681UNK    C03 6124   2.117   3.758   2.391 -0.1738  0.0286  0.5152
  681UNK    C04 6125   2.085   3.708   2.255 -0.8749  0.7080 -0.4825
  681UNK    F05 6126   2.023   3.800   2.182 -0.0647  0.1196 -0.6811
  681UNK    F06 6127   2.185   3.648   2.179 -0.4814 -0.8628  0.4513
  681UNK    F07 6128   1.988   3.618   2.272 -0.2494  0.0303  0.3473
  681UNK    H08 6129   2.145   3.862   2.400  1.9291 -0.5161  0.7328
  682UNK    F00 6130   1.056   1.778   1.208  0.0570 -0.0913 -0.1085
  682UNK    C01 6131   0.989   1.707   1.109 -0.2175  0.3983 -0.0539
  682UNK    H02 6132   0.999   1.601   1.130 -0.9880 -0.0986 -1.9918
  682UNK    C03 6133   0.899   1.768   1.038 -0.4478 -0.3713  0.4857
  682UNK    C04 6134   0.773   1.702   1.007 -0.3248  0.3319 -0.0845
  682UNK    F05 6135   0.672   1.746   1.090 -0.3769 -0.8119  0.3700
  682UNK    F06 6136   0.730   1.728   0.877 -0.2094 -0.4651 -0.3615
  682UNK    F07 6137   0.765   1.566   1.004  0.1796  0.0768 -0.0965
  682UNK    H08 6138   0.889   1.873   1.062  1.8449 -0.1175  0.5606
  683UNK    F00 6139   4.513   2.678   2.834  0.1780 -0.7185  0.3437
  683UNK    C01 6140   4.630   2.738   2.795 -0.1611 -0.1505  0.1583
  683UNK    H02 6141   4.671   2.715   2.696 -1.8559 -0.0890 -0.5948
  683UNK    C03 6142   4.697   2.806   2.892  0.5771  0.9315  0.2614
  683UNK    C04 6143   4.629   2.901   2.973 -0.3496 -0.3398  0.0242
  683UNK    F05 6144   4.734   2.974   3.021 -0.2656  0.4698 -0.2284
  683UNK    F06 6145   4.549   2.984   2.906  0.6559 -0.3012 -0.1473
  683UNK    F07 6146   4.569   2.863   3.088  0.1150  0.0103  0.1394
  683UNK    H08 6147   4.777   2.756   2.944 -1.8259 -1.8449  1.5753
  684UNK    F00 6148   0.537   1.495   1.445  0.2403  1.0716  0.6202
  684UNK    C01 6149   0.598   1.575   1.357 -0.0403  0.4759 -0.1579
  684UNK    H02 6150   0.610   1.524   1.261  0.3850 -3.6932  1.8892
  684UNK    C03 6151   0.609   1.700   1.381 -0.0379 -0.1594  0.2743
  684UNK    C04 6152   0.716   1.769   1.452  0.4199 -0.5041  0.3642
  684UNK    F05 6153   0.759   1.719   1.566  0.5911  0.7021 -0.0622
  684UNK    F06 6154   0.830   1.773   1.373  0.9982 -0.3763  0.4817
  684UNK    F07 6155   0.679   1.895   1.474 -0.2871  0.4127 -0.6208
  684UNK    H08 6156   0.521   1.756   1.354  0.8271  1.7093  1.1811
  685UNK    F00 6157   3.070   3.527   3.776  0.7291 -0.0284  0.3228
  685UNK    C01 6158   2.957   3.490   3.706 -0.9213 -0.7109 -0.3677
  685UNK    H02 6159   2.935   3.384   3.703 -4.0485 -0.2941  2.2390
  685UNK    C03 6160   2.885   3.586   3.662  0.8789 -0.1222  0.0395
  685UNK    C04 6161   2.916   3.665   3.545 -0.5196 -0.1979 -0.5537
  685UNK    F05 6162   2.890   3.595   3.432  0.0681 -0.2681  0.2348
  685UNK    F06 6163   2.858   3.785   3.533  0.4987 -0.5175  0.2098
  685UNK    F07 6164   3.052   3.690   3.540  0.0341 -0.0424  0.2363
  685UNK    H08 6165   2.833   3.641   3.738 -1.6502  0.1880 -1.7984
  686UNK    F00 6166   0.538   2.346   3.233 -0.3143  0.1322  0.3122
  686UNK    C01 6167   0.642   2.296   3.300 -0.0829 -0.3126 -0.2739
  686UNK    H02 6168   0.608   2.229   3.378  0.5545 -2.3736 -1.6706
  686UNK    C03 6169   0.758   2.278   3.239 -0.3669 -0.0912 -0.4708
  686UNK    C04 6170   0.855   2.175   3.287 -0.5272 -1.0733 -0.2535
  686UNK    F05 6171   0.979   2.233   3.274  0.0514 -0.0541 -1.0657
  686UNK    F06 6172   0.830   2.132   3.415 -0.4270 -0.2650 -0.4501
  686UNK    F07 6173   0.847   2.066   3.207  0.4392 -0.3300  0.1388
  686UNK    H08 6174   0.761   2.300   3.133 -0.7415  1.7699 -0.1371
  687UNK    F00 6175   4.203   3.533   3.925  0.0097 -0.2705  0.2479
  687UNK    C01 6176   4.257   3.530   3.802  0.0771 -0.4213 -0.5184
  687UNK    H02 6177   4.278   3.626   3.756 -0.0530 -0.1754 -0.0699
  687UNK    C03 6178   4.324   3.423   3.774  0.1280  0.0176  0.8416
  687UNK    C04 6179   4.266   3.309   3.688 -0.0968 -0.5429  0.5477
  687UNK    F05 6180   4.284   3.328   3.554  0.4938 -0.9815 -0.0152
  687UNK    F06 6181   4.335   3.199   3.734  0.8660 -0.0248  0.3667
  687UNK    F07 6182   4.139   3.302   3.718  0.3068  0.6043 -0.3440
  687UNK    H08 6183   4.420   3.402   3.819  0.6329 -0.4038 -0.3851
  688UNK    F00 6184   1.513   1.751   2.056 -0.2202 -0.3430  0.0832
  688UNK    C01 6185   1.562   1.630   2.080 -0.1143 -0.2505 -0.3273
  688UNK    H02 6186   1.629   1.604   1.997  2.9563  1.0275  1.5787
  688UNK    C03 6187   1.588   1.590   2.199 -0.8191  0.4176  0.0378
  688UNK    C04 6188   1.655   1.472   2.251 -0.4043  0.3853 -0.4176
  688UNK    F05 6189   1.611   1.368   2.175 -0.0620 -0.3306 -0.1868
  688UNK    F06 6190   1.794   1.478   2.235  0.3560  0.3875 -0.4173
  688UNK    F07 6191   1.617   1.438   2.377  0.2444  0.4048 -0.0982
  688UNK    H08 6192   1.601   1.669   2.271  2.2113 -0.4058  0.5257
  689UNK    F00 6193   3.567   3.313   2.108 -0.0778 -0.2200  0.4285
  689UNK    C01 6194   3.651   3.362   2.202 -0.6246 -0.5695 -0.0610
  689UNK    H02 6195   3.730   3.426   2.162  0.1039 -0.6350  1.2136
  689UNK    C03 6196   3.615   3.364   2.327 -0.5238 -0.4779  0.7774
  689UNK    C04 6197   3.625   3.476   2.425  0.4068  0.0068  0.0070
  689UNK    F05 6198   3.610   3.443   2.551  0.1885 -0.0945 -0.1683
  689UNK    F06 6199   3.737   3.554   2.415 -0.2920  0.0780  0.0094
  689UNK    F07 6200   3.524   3.567   2.395  0.2018 -0.3762  0.1294
  689UNK    H08 6201   3.524   3.309   2.345 -0.7384 -0.3597  0.0764
  690UNK    F00 6202   1.691   1.086   1.190 -0.1090 -0.0357  0.6045
  690UNK    C01 6203   1.691   1.041   1.313 -0.6283 -0.1661  0.8116
  690UNK    H02 6204   1.779   1.079   1.364  1.7639 -0.9078 -2.4251
  690UNK    C03 6205   1.634   0.924   1.322 -0.3332  0.5298 -0.2323
  690UNK    C04 6206   1.602   0.873   1.453  0.5770 -0.1262 -0.5535
  690UNK    F05 6207   1.558   0.749   1.448  0.3970  0.6513  0.3155
  690UNK    F06 6208   1.706   0.858   1.542  0.0518 -0.4346  0.2404
  690UNK    F07 6209   1.515   0.951   1.525  0.2006 -0.0445 -0.1953
  690UNK    H08 6210   1.635   0.849   1.245 -0.4858  0.6890 -0.3900
  691UNK    F00 6211   2.790   2.003   1.598  0.0484 -0.1820 -0.3375
  691UNK    C01 6212   2.914   2.032   1.559  1.0445 -0.2713  0.3381
  691UNK    H02 6213   2.986   2.030   1.641  2.1663 -1.3935 -0.6171
  691UNK    C03 6214   2.933   2.024   1.428  0.1229  0.1343 -0.3228
  691UNK    C04 6215   2.966   2.139   1.344  0.2122 -0.2305 -0.1040
  691UNK    F05 6216   3.098   2.168   1.336  0.3304 -0.1078 -0.5605
  691UNK    F06 6217   2.943   2.112   1.215  0.3408  0.5093 -0.1804
  691UNK    F07 6218   2.905   2.249   1.386 -0.1949  0.3828  0.2172
  691UNK    H08 6219   2.930   1.923   1.389  0.7484  0.3423 -0.9365
  692UNK    F00 6220   4.092   0.370   4.288  0.1706  0.3121 -0.1840
  692UNK    C01 6221   4.032   0.476   4.339 -0.0587  0.0373  0.1202
  692UNK    H02 6222   4.081   0.495   4.434  0.1763  1.3922 -0.2449
  692UNK    C03 6223   3.931   0.540   4.283 -0.6579  0.2086  0.7204
  692UNK    C04 6224   3.895   0.683   4.287  0.2114 -0.0947 -0.5519
  692UNK    F05 6225   3.833   0.697   4.413  0.3484 -0.4111  0.1265
  692UNK    F06 6226   4.006   0.756   4.291 -0.2788 -0.5685 -0.0389
  692UNK    F07 6227   3.807   0.725   4.194 -0.2597 -0.5517 -0.3404
  692UNK    H08 6228   3.847   0.477   4.257 -0.1718 -0.0237 -0.3302
  693UNK    F00 6229   2.923   3.958   1.865 -0.5539 -0.1551 -0.3159
  693UNK    C01 6230   2.891   4.084   1.869 -1.0131  0.0197 -0.6657
  693UNK    H02 6231   2.839   4.110   1.962  0.5776 -0.2977  0.3535
  693UNK    C03 6232   2.909   4.176   1.767  0.4939  0.1317 -0.4323
  693UNK    C04 6233   2.802   4.205   1.671 -0.0050 -0.3514  0.8400
  693UNK    F05 6234   2.728   4.310   1.722  0.2339  0.0364 -0.1638
  693UNK    F06 6235   2.840   4.246   1.544  0.0667 -0.4543 -0.4155
  693UNK    F07 6236   2.714   4.103   1.652  0.4271  0.4253  0.3125
  693UNK    H08 6237   3.007   4.198   1.727  0.6753 -1.5471 -1.0038
  694UNK    F00 6238   3.574   1.963   2.948 -0.1131  0.4011 -0.0473
  694UNK    C01 6239   3.625   1.850   2.888 -0.2823 -0.4840  0.5052
  694UNK    H02 6240   3.638   1.774   2.965  0.9833  1.0848  1.9305
  694UNK    C03 6241   3.691   1.859   2.772 -0.2706  0.0350  0.2215
  694UNK    C04 6242   3.744   1.738   2.696  0.5028 -0.5684 -0.7784
  694UNK    F05 6243   3.813   1.659   2.782  0.2369  0.6566 -0.0518
  694UNK    F06 6244   3.652   1.646   2.647 -0.3649 -0.5038 -0.6801
  694UNK    F07 6245   3.821   1.782   2.597  0.4971 -0.0972 -0.0329
  694UNK    H08 6246   3.715   1.957   2.734 -2.7241  1.1120  1.2480
  695UNK    F00 6247   4.502   1.863   3.815  0.0603  0.5362 -0.8004
  695UNK    C01 6248   4.372   1.833   3.826 -0.1652 -0.0488  0.0195
  695UNK    H02 6249   4.339   1.831   3.930  0.2763 -2.7852  0.1887
  695UNK    C03 6250   4.296   1.893   3.734  0.6480  0.5749  0.5147
  695UNK    C04 6251   4.311   2.036   3.702 -0.2478 -0.0050 -0.1599
  695UNK    F05 6252   4.197   2.095   3.658 -0.1113  0.1077  0.0577
  695UNK    F06 6253   4.364   2.108   3.804 -0.1424  0.3535 -0.0320
  695UNK    F07 6254   4.395   2.051   3.598  0.1192 -0.0177 -0.2154
  695UNK    H08 6255   4.212   1.839   3.693  1.4339  0.4810 -1.0374
  696UNK    F00 6256   3.447   2.440   0.036 -0.5063  0.2018  0.2512
  696UNK    C01 6257   3.455   2.380  -0.081 -0.2349  0.5053 -0.2286
  696UNK    H02 6258   3.520   2.293  -0.070 -1.9387 -0.5571  2.4018
  696UNK    C03 6259   3.387   2.416  -0.189  0.6603  1.0323 -0.3902
  696UNK    C04 6260   3.424   2.535  -0.262  0.0411  0.4969  0.5715
  696UNK    F05 6261   3.532   2.512  -0.339 -0.4091 -0.0431 -0.3129
  696UNK    F06 6262   3.316   2.591  -0.336  0.1954  0.2466  0.0498
  696UNK    F07 6263   3.465   2.635  -0.178  0.1891 -0.0746  0.1087
  696UNK    H08 6264   3.288   2.382  -0.214  1.1146 -0.6581 -0.0211
  697UNK    F00 6265   4.402   1.800   1.632  0.0348  0.6074  0.8322
  697UNK    C01 6266   4.301   1.762   1.544 -0.5821  0.1906 -0.6580
  697UNK    H02 6267   4.206   1.813   1.562 -1.2117 -1.4024  0.8379
  697UNK    C03 6268   4.319   1.640   1.493  0.2205  0.2351 -0.0705
  697UNK    C04 6269   4.286   1.600   1.355 -0.2664 -0.2953  0.2301
  697UNK    F05 6270   4.285   1.467   1.342 -0.0608 -0.3029  0.0180
  697UNK    F06 6271   4.172   1.656   1.315  0.4341  0.0275  0.3321
  697UNK    F07 6272   4.391   1.639   1.280  0.3492  0.2790  0.1415
  697UNK    H08 6273   4.382   1.574   1.550  0.9417  0.9702  0.0155
  698UNK    F00 6274   1.808   4.018   2.086  0.2369 -0.8350  0.1021
  698UNK    C01 6275   1.936   4.059   2.093  0.2014 -0.3664  0.0585
  698UNK    H02 6276   1.986   4.019   2.005 -0.2801 -0.1914 -0.2984
  698UNK    C03 6277   1.972   4.158   2.166  0.5481 -0.2069  0.2930
  698UNK    C04 6278   1.992   4.149   2.313 -0.5388 -0.2587  0.6428
  698UNK    F05 6279   1.932   4.051   2.379 -0.5239  0.7591  0.8900
  698UNK    F06 6280   2.124   4.123   2.339 -0.1243 -0.2249  0.3031
  698UNK    F07 6281   1.957   4.271   2.368  0.2553  0.0744  0.3552
  698UNK    H08 6282   1.949   4.254   2.121 -1.1260 -1.9152 -2.8615
  699UNK    F00 6283   2.531   1.843   4.331 -0.0678 -0.2816  0.3987
  699UNK    C01 6284   2.404   1.798   4.337  0.0652 -0.1530  0.2508
  699UNK    H02 6285   2.370   1.796   4.441 -1.5797 -0.3074 -0.2595
  699UNK    C03 6286   2.321   1.807   4.231  0.2083 -0.1309 -0.0226
  699UNK    C04 6287   2.177   1.815   4.261 -0.3264  0.7508  1.1664
  699UNK    F05 6288   2.107   1.765   4.155  0.1870 -0.5840 -0.2415
  699UNK    F06 6289   2.153   1.744   4.371 -0.5440 -0.3752  0.7193
  699UNK    F07 6290   2.135   1.937   4.286 -0.1406  0.1003 -0.1843
  699UNK    H08 6291   2.355   1.807   4.129 -1.9163 -0.5326 -0.7663
  700UNK    F00 6292   0.122   1.606   4.219 -0.4315  0.2506  0.8901
  700UNK    C01 6293   0.018   1.673   4.181  0.0351 -0.5784  0.0166
  700UNK    H02 6294  -0.071   1.612   4.170 -1.1837  1.0592  0.4730
  700UNK    C03 6295   0.041   1.774   4.095  0.0332 -0.1855 -0.0666
  700UNK    C04 6296   0.143   1.874   4.129 -0.3767 -0.2755 -0.1393
  700UNK    F05 6297   0.268   1.821   4.119  0.4117  0.7062  0.1653
  700UNK    F06 6298   0.133   1.965   4.031  0.2003 -0.0175 -0.4141
  700UNK    F07 6299   0.120   1.934   4.248 -0.1278 -0.1442 -0.2586
  700UNK    H08 6300   0.021   1.758   3.990 -0.8829 -1.6026  0.3016
  701UNK    F00 6301   0.745   1.606   4.069 -0.2173 -0.0935  0.2464
  701UNK    C01 6302   0.696   1.644   3.951  0.6468 -0.2262 -0.1017
  701UNK    H02 6303   0.595   1.684   3.950  1.4245  1.8325 -0.6332
  701UNK    C03 6304   0.775   1.640   3.847  0.2465 -0.8019  0.5189
  701UNK    C04 6305   0.756   1.515   3.763 -0.2332 -0.3301  0.1178
  701UNK    F05 6306   0.660   1.525   3.670  0.5087  0.0982 -0.0819
  701UNK    F06 6307   0.869   1.491   3.688 -0.1023 -0.2739  0.7554
  701UNK    F07 6308   0.725   1.403   3.830  0.1497  0.2190  0.1586
  701UNK    H08 6309   0.880   1.665   3.848 -0.1630  1.0735  0.6805
  702UNK    F00 6310   2.262   0.505   4.144  0.4101  0.5582 -0.2740
  702UNK    C01 6311   2.163   0.436   4.193 -0.1716 -0.2424 -0.6234
  702UNK    H02 6312   2.190   0.334   4.222 -2.1085 -0.0818  2.2239
  702UNK    C03 6313   2.039   0.481   4.194 -0.0077 -0.5180 -0.6682
  702UNK    C04 6314   1.977   0.524   4.320  0.1698  0.3089 -0.1300
  702UNK    F05 6315   1.847   0.539   4.297  0.6223  0.4290 -0.3540
  702UNK    F06 6316   1.994   0.422   4.408  0.2366  0.2285 -0.0235
  702UNK    F07 6317   2.031   0.634   4.377  0.3211  0.3041  0.8979
  702UNK    H08 6318   2.016   0.545   4.110  0.1571  1.2866  0.6179
  703UNK    F00 6319   0.746   2.532   0.502 -0.3747  0.3089  0.3794
  703UNK    C01 6320   0.692   2.555   0.627 -0.5456  0.5563 -0.0679
  703UNK    H02 6321   0.627   2.473   0.657  0.7367 -1.5713 -2.6857
  703UNK    C03 6322   0.707   2.675   0.684  0.3625  0.3050  0.3729
  703UNK    C04 6323   0.671   2.701   0.826  1.1921 -0.3967 -0.2864
  703UNK    F05 6324   0.540   2.674   0.834  0.0708 -0.2114 -0.1492
  703UNK    F06 6325   0.733   2.614   0.910  0.9231  0.1073 -0.7192
  703UNK    F07 6326   0.701   2.830   0.866 -0.1904 -0.1272 -0.0875
  703UNK    H08 6327   0.738   2.754   0.617  0.8890 -1.6810 -1.8241
  704UNK    F00 6328   2.561   4.101   4.415 -0.4649 -0.3970  0.0272
  704UNK    C01 6329   2.621   4.111   4.298 -0.3381 -0.3109  0.3696
  704UNK    H02 6330   2.677   4.202   4.276 -0.1267 -0.5158  0.0480
  704UNK    C03 6331   2.606   4.015   4.205  0.3716 -0.3483  0.0145
  704UNK    C04 6332   2.714   3.990   4.107 -0.1142  0.5076  0.1347
  704UNK    F05 6333   2.696   3.895   4.013  0.6114 -0.4375 -0.7713
  704UNK    F06 6334   2.760   4.101   4.052  0.6028 -0.5455 -0.1522
  704UNK    F07 6335   2.830   3.957   4.165 -0.1505  0.3451 -0.2939
  704UNK    H08 6336   2.508   3.973   4.188  0.2441 -0.3734  0.7511
  705UNK    F00 6337   1.962   1.862   0.751  0.2598 -0.0098 -0.9877
  705UNK    C01 6338   1.906   1.764   0.817  0.9308 -0.0215 -0.3053
  705UNK    H02 6339   1.967   1.741   0.904  0.8864 -0.5383 -0.4064
  705UNK    C03 6340   1.826   1.679   0.750 -0.4190  0.2662  0.2301
  705UNK    C04 6341   1.710   1.608   0.809  0.6823 -0.0986 -0.7259
  705UNK    F05 6342   1.730   1.543   0.929  0.0701 -0.3369  0.4918
  705UNK    F06 6343   1.608   1.700   0.838  0.5809 -0.0641 -0.2306
  705UNK    F07 6344   1.661   1.504   0.728  0.6193  0.4419 -0.0132
  705UNK    H08 6345   1.818   1.684   0.643  1.6064  0.8014  0.0678
  706UNK    F00 6346   3.217   1.152   3.550  0.2578 -0.0893  0.3235
  706UNK    C01 6347   3.137   1.081   3.473  0.2878 -0.5827 -0.1075
  706UNK    H02 6348   3.031   1.097   3.495  0.9187  2.1176  1.5029
  706UNK    C03 6349   3.186   1.038   3.363 -0.0637  0.3368  0.1213
  706UNK    C04 6350   3.097   0.957   3.272  0.1859  0.6160  0.3174
  706UNK    F05 6351   3.175   0.881   3.195 -0.7110 -0.0359  0.6963
  706UNK    F06 6352   3.016   0.862   3.329 -0.3845  0.7332  0.9386
  706UNK    F07 6353   3.036   1.045   3.185 -0.8251  0.0628 -0.4072
  706UNK    H08 6354   3.249   1.108   3.310  0.3231 -1.4887 -2.0142
  707UNK    F00 6355   2.718   1.810   2.745  0.2221 -0.1509 -0.0374
  707UNK    C01 6356   2.792   1.915   2.788  0.5146 -1.0210  0.1809
  707UNK    H02 6357   2.720   1.984   2.833  0.4919  0.7346 -2.3605
  707UNK    C03 6358   2.922   1.906   2.807  0.2480  0.3406 -0.5524
  707UNK    C04 6359   3.006   2.000   2.884 -0.4746  0.4784 -1.0653
  707UNK    F05 6360   2.938   2.044   2.987 -0.3313 -0.2407 -0.2633
  707UNK    F06 6361   3.114   1.945   2.942  0.2020 -0.1096  0.1788
  707UNK    F07 6362   3.046   2.108   2.819  0.1011  0.0008  0.1587
  707UNK    H08 6363   2.969   1.809   2.794  2.2126  1.1740 -0.0663
  708UNK    F00 6364   0.650   0.206   1.799 -0.2402 -0.0508  0.0604
  708UNK    C01 6365   0.751   0.194   1.724 -1.0691 -0.4145  0.4171
  708UNK    H02 6366   0.850   0.206   1.768  0.8924  1.6859 -3.8991
  708UNK    C03 6367   0.725   0.224   1.598  0.0662 -0.2775  0.1180
  708UNK    C04 6368   0.703   0.364   1.553  0.2886 -0.4362  0.2155
  708UNK    F05 6369   0.638   0.438   1.644 -0.8148  0.1656 -0.1118
  708UNK    F06 6370   0.824   0.426   1.537  0.2288  0.3581 -0.0750
  708UNK    F07 6371   0.627   0.379   1.435 -0.3201 -0.4539 -0.4397
  708UNK    H08 6372   0.664   0.156   1.540 -1.6977  1.4560 -0.1560
  709UNK    F00 6373   1.430   0.804   2.192 -0.2161 -0.0629  0.2527
  709UNK    C01 6374   1.436   0.669   2.202  0.2823  0.2428  0.3846
  709UNK    H02 6375   1.538   0.633   2.215  0.9190  1.7955 -0.1466
  709UNK    C03 6376   1.319   0.600   2.202 -0.9672 -0.3832 -0.5709
  709UNK    C04 6377   1.323   0.469   2.269  0.1748 -0.3595  0.7471
  709UNK    F05 6378   1.433   0.399   2.251  0.0322 -0.8912  0.1482
  709UNK    F06 6379   1.322   0.486   2.405  0.3272  0.5751 -0.6205
  709UNK    F07 6380   1.219   0.388   2.250 -0.0191  0.2970 -0.2067
  709UNK    H08 6381   1.248   0.609   2.121 -0.8372 -1.8296 -0.8762
  710UNK    F00 6382   4.835   0.612   3.765  0.3780 -0.4310 -0.1996
  710UNK    C01 6383   4.830   0.725   3.692 -0.0034  0.4640 -0.0288
  710UNK    H02 6384   4.882   0.709   3.597 -1.2540  0.2116 -0.7050
  710UNK    C03 6385   4.718   0.790   3.705  0.4270 -0.3517  0.2690
  710UNK    C04 6386   4.614   0.813   3.599  0.2782 -0.0640  0.1541
  710UNK    F05 6387   4.670   0.907   3.523  0.0641  0.4586  0.1161
  710UNK    F06 6388   4.591   0.702   3.524 -0.3308  0.4588  0.1863
  710UNK    F07 6389   4.494   0.857   3.641 -0.3498  0.3239 -0.1938
  710UNK    H08 6390   4.699   0.862   3.783 -0.9280  0.5897 -0.8809
  711UNK    F00 6391   1.761   2.457   4.187  0.1376  0.2138 -0.3032
  711UNK    C01 6392   1.683   2.352   4.227  0.3446 -0.5370 -0.1234
  711UNK    H02 6393   1.577   2.365   4.208 -0.1400  0.7333  2.9340
  711UNK    C03 6394   1.735   2.248   4.293 -0.6746 -0.2263 -0.4534
  711UNK    C04 6395   1.862   2.185   4.240  0.1645  0.1454 -0.1687
  711UNK    F05 6396   1.875   2.067   4.300 -0.3876  0.2968  0.4107
  711UNK    F06 6397   1.845   2.160   4.112  0.2917 -0.4325  0.7398
  711UNK    F07 6398   1.971   2.258   4.267 -0.4136 -0.3452  0.5619
  711UNK    H08 6399   1.710   2.243   4.398  3.1145  0.9227  0.6846
  712UNK    F00 6400   1.799   3.353   0.074 -0.1724 -0.0493  0.0820
  712UNK    C01 6401   1.726   3.281  -0.016  0.3736 -0.5788 -0.2594
  712UNK    H02 6402   1.637   3.339  -0.043  0.3547 -0.6323 -0.3128
  712UNK    C03 6403   1.742   3.159  -0.066 -0.5392  0.0567 -0.3416
  712UNK    C04 6404   1.660   3.092  -0.166  0.4712 -0.0080  0.2814
  712UNK    F05 6405   1.650   2.954  -0.163  0.1836 -0.2805  0.3203
  712UNK    F06 6406   1.536   3.140  -0.160  0.3067 -0.1726  0.4713
  712UNK    F07 6407   1.700   3.137  -0.285  0.6267 -0.4031  0.1099
  712UNK    H08 6408   1.805   3.089  -0.014 -2.2370 -2.0035 -0.9129
  713UNK    F00 6409   2.498   3.234   0.911 -0.0848  0.4791  0.0040
  713UNK    C01 6410   2.458   3.305   1.012  0.3504  0.5716 -0.4942
  713UNK    H02 6411   2.355   3.340   1.000  0.0072 -0.5197 -0.7933
  713UNK    C03 6412   2.556   3.345   1.093  0.2970  0.4552 -0.0863
  713UNK    C04 6413   2.563   3.393   1.229  0.3905 -0.2205 -0.4673
  713UNK    F05 6414   2.449   3.466   1.258 -0.4716  0.1100  0.1264
  713UNK    F06 6415   2.568   3.290   1.305 -0.2948  0.2308  0.4196
  713UNK    F07 6416   2.676   3.456   1.257 -0.3996  0.2986 -0.0297
  713UNK    H08 6417   2.650   3.295   1.075  0.1789  0.2201 -0.0538
  714UNK    F00 6418   0.032   0.182   1.502 -0.7441 -0.3140  0.2489
  714UNK    C01 6419  -0.094   0.194   1.527 -0.5804 -0.7798  0.6542
  714UNK    H02 6420  -0.159   0.149   1.452  1.8016  0.1071 -2.1356
  714UNK    C03 6421  -0.119   0.231   1.652  0.4163  0.1978 -0.0303
  714UNK    C04 6422  -0.250   0.270   1.705  0.8529 -0.7714  0.5921
  714UNK    F05 6423  -0.234   0.325   1.830 -0.1830  0.6438 -0.0016
  714UNK    F06 6424  -0.308   0.349   1.610 -0.1312  0.6874 -0.4131
  714UNK    F07 6425  -0.334   0.164   1.708  0.9903  0.3440 -0.3723
  714UNK    H08 6426  -0.041   0.260   1.721 -1.3048  1.7878  1.3381
  715UNK    F00 6427   4.035   2.280   4.262 -0.6278  0.0117  0.1636
  715UNK    C01 6428   4.007   2.378   4.177  0.0656 -0.6028 -0.2746
  715UNK    H02 6429   4.042   2.367   4.075  0.0547 -0.0041 -0.3418
  715UNK    C03 6430   3.971   2.504   4.227  0.1830  1.1091 -0.2119
  715UNK    C04 6431   3.882   2.594   4.152  0.4712 -0.6193  0.0963
  715UNK    F05 6432   3.914   2.618   4.020  0.1316  0.0373  0.4477
  715UNK    F06 6433   3.751   2.560   4.156  0.1237 -0.1605 -0.4277
  715UNK    F07 6434   3.878   2.715   4.213  0.1828  0.1351 -0.2958
  715UNK    H08 6435   4.014   2.542   4.318  1.9318 -0.9784 -0.0803
  716UNK    F00 6436   3.020   4.206   3.238 -0.1870  0.6514  0.0725
  716UNK    C01 6437   3.127   4.265   3.181 -0.1848 -0.9362  0.1882
  716UNK    H02 6438   3.217   4.203   3.176  0.4570 -0.0173  0.1247
  716UNK    C03 6439   3.103   4.393   3.140  0.0652 -0.2327 -0.8234
  716UNK    C04 6440   3.092   4.503   3.235 -0.0961 -0.2860  0.7888
  716UNK    F05 6441   3.211   4.534   3.284 -0.4669 -0.6012 -0.6171
  716UNK    F06 6442   3.043   4.615   3.165  0.1660  0.5142  0.3227
  716UNK    F07 6443   3.008   4.489   3.340  0.0062  0.2015  0.3093
  716UNK    H08 6444   3.101   4.429   3.038  2.9373  0.9687 -0.5497
  717UNK    F00 6445   0.829   3.938   0.502  0.2405 -0.6606  0.7475
  717UNK    C01 6446   0.887   4.034   0.577  0.1859  0.4792  0.3995
  717UNK    H02 6447   0.917   4.123   0.522 -0.9157  1.1198  0.7928
  717UNK    C03 6448   0.882   4.012   0.706 -0.0645  0.4867  0.3122
  717UNK    C04 6449   0.755   3.989   0.767 -0.4241 -0.0374 -0.4303
  717UNK    F05 6450   0.778   3.985   0.901  0.2508 -0.7973  0.3041
  717UNK    F06 6451   0.682   4.090   0.729  0.0850 -0.0227  0.4107
  717UNK    F07 6452   0.685   3.876   0.733 -0.3796 -0.0709  0.4726
  717UNK    H08 6453   0.973   4.000   0.763 -0.0655 -4.3239 -0.2767
  718UNK    F00 6454   4.493   1.995   4.364  0.1940  0.1103  0.1221
  718UNK    C01 6455   4.572   2.000   4.473  0.7502 -1.3423  0.2973
  718UNK    H02 6456   4.584   2.105   4.503  1.7299 -1.4111  0.1723
  718UNK    C03 6457   4.646   1.899   4.506 -0.3768 -0.5088  0.0370
  718UNK    C04 6458   4.600   1.759   4.490 -0.1880 -0.2610  0.1506
  718UNK    F05 6459   4.678   1.677   4.567 -0.3883 -0.7499  0.0316
  718UNK    F06 6460   4.470   1.759   4.536 -0.4679 -0.2019  0.3588
  718UNK    F07 6461   4.605   1.718   4.362  0.4257  0.2325  0.0303
  718UNK    H08 6462   4.751   1.920   4.506 -0.2429 -1.1123 -0.7562
  719UNK    F00 6463   0.525   1.997   1.809  0.4314 -0.0225 -0.7012
  719UNK    C01 6464   0.594   1.892   1.766  0.5792 -0.7654 -0.2873
  719UNK    H02 6465   0.560   1.853   1.670 -0.1064 -0.0751 -0.3373
  719UNK    C03 6466   0.690   1.848   1.846  0.0615  0.2184 -0.4947
  719UNK    C04 6467   0.656   1.743   1.947  0.8142 -0.1292  0.4810
  719UNK    F05 6468   0.670   1.623   1.891  0.2175  0.0196  0.0625
  719UNK    F06 6469   0.719   1.758   2.062 -0.0959  0.2909  0.5426
  719UNK    F07 6470   0.527   1.756   1.987 -0.2030 -0.3523  0.2514
  719UNK    H08 6471   0.764   1.921   1.876 -1.4455  1.3011  0.7039
  720UNK    F00 6472   1.042   4.353   1.901  0.6668 -0.1201 -0.0058
  720UNK    C01 6473   0.974   4.236   1.908 -0.4598  0.0523  0.2100
  720UNK    H02 6474   0.870   4.255   1.883 -0.2981  0.7647  0.0647
  720UNK    C03 6475   1.040   4.119   1.892  0.3029 -0.2427 -0.3698
  720UNK    C04 6476   1.131   4.040   1.982  0.2352 -0.5158 -0.1861
  720UNK    F05 6477   1.226   4.113   2.041 -0.4150  0.0971  0.2421
  720UNK    F06 6478   1.073   3.972   2.076  0.1089  0.0518 -0.5362
  720UNK    F07 6479   1.192   3.950   1.899 -0.3682 -0.1244  0.2515
  720UNK    H08 6480   1.030   4.069   1.797  0.9720  1.7870 -1.5678
  721UNK    F00 6481   1.499   4.417   0.726 -1.0500 -0.2887 -0.2078
  721UNK    C01 6482   1.550   4.524   0.785 -0.2048 -0.2709 -0.1677
  721UNK    H02 6483   1.527   4.608   0.720  0.2706 -1.8042 -2.4250
  721UNK    C03 6484   1.663   4.507   0.848  0.4531  0.2330  0.6024
  721UNK    C04 6485   1.795   4.492   0.780  0.2098 -0.2005 -0.1727
  721UNK    F05 6486   1.785   4.456   0.654  0.0445  0.4596  0.2938
  721UNK    F06 6487   1.870   4.606   0.791  0.6971 -0.2396  0.6452
  721UNK    F07 6488   1.877   4.397   0.835 -0.9695 -0.1109  0.5457
  721UNK    H08 6489   1.657   4.473   0.951  1.7857  1.1867  1.0186
  722UNK    F00 6490   4.303   4.320   4.280 -0.1269 -0.2812  0.7965
  722UNK    C01 6491   4.291   4.197   4.238  0.5887  0.2154  0.4384
  722UNK    H02 6492   4.251   4.187   4.137  0.2062 -1.5411  0.7363
  722UNK    C03 6493   4.353   4.099   4.303 -0.3651  0.8578 -0.5207
  722UNK    C04 6494   4.307   4.033   4.424 -0.2344  0.3668  0.0057
  722UNK    F05 6495   4.183   3.966   4.421 -0.5358 -0.3016 -0.4110
  722UNK    F06 6496   4.396   3.935   4.456 -0.1867  0.4324  0.0894
  722UNK    F07 6497   4.311   4.117   4.533 -0.0483 -0.6986  0.2219
  722UNK    H08 6498   4.460   4.092   4.288 -0.3410  0.8312 -0.3310
  723UNK    F00 6499   3.549   0.333   2.864 -0.5843  0.0837  0.5151
  723UNK    C01 6500   3.454   0.247   2.900  0.6630 -0.3816 -0.1426
  723UNK    H02 6501   3.397   0.208   2.816  2.2099  0.9745 -1.8927
  723UNK    C03 6502   3.422   0.259   3.024 -0.0203  0.7273 -0.8523
  723UNK    C04 6503   3.370   0.139   3.100  0.7420 -0.6090  0.6522
  723UNK    F05 6504   3.301   0.182   3.208 -0.2560 -0.3345  0.0747
  723UNK    F06 6505   3.285   0.066   3.029  0.6289  0.1214 -0.5849
  723UNK    F07 6506   3.478   0.068   3.135 -0.0447  0.0129 -0.2278
  723UNK    H08 6507   3.408   0.349   3.082 -0.1451 -0.4921  1.0975
  724UNK    F00 6508   3.344   4.671   4.329 -0.4293  0.3579 -0.3131
  724UNK    C01 6509   3.383   4.594   4.429 -0.0816  1.1108  0.4416
  724UNK    H02 6510   3.297   4.539   4.468  0.2764 -0.0130 -0.3042
  724UNK    C03 6511   3.498   4.599   4.491 -0.2996 -0.2597  0.1775
  724UNK    C04 6512   3.538   4.720   4.561 -0.4842 -0.4465  0.6568
  724UNK    F05 6513   3.512   4.822   4.480 -0.2188 -0.1642 -0.1149
  724UNK    F06 6514   3.473   4.735   4.684 -0.0860 -0.1762 -0.2305
  724UNK    F07 6515   3.672   4.731   4.569  0.0848 -0.5998 -0.0010
  724UNK    H08 6516   3.554   4.508   4.506  0.4874  0.1632 -0.1383
  725UNK    F00 6517   3.869   0.324   1.105 -0.3333 -0.2523  0.1819
  725UNK    C01 6518   3.904   0.348   1.231  0.4566  1.2604 -0.7250
  725UNK    H02 6519   4.002   0.315   1.263 -0.4713 -0.8259  0.1521
  725UNK    C03 6520   3.810   0.412   1.296 -0.0320  0.2587  0.5547
  725UNK    C04 6521   3.676   0.366   1.332 -0.2486  0.8231  0.1384
  725UNK    F05 6522   3.696   0.271   1.430  0.1015 -0.7125  0.1307
  725UNK    F06 6523   3.601   0.473   1.369  1.0131 -0.5659 -0.3896
  725UNK    F07 6524   3.621   0.302   1.227  0.9643 -0.6483 -0.7347
  725UNK    H08 6525   3.828   0.514   1.326  0.2406  0.8287 -1.4354
  726UNK    F00 6526   2.069   2.803   1.657 -0.5126  0.1835 -0.1756
  726UNK    C01 6527   2.168   2.780   1.741  0.1796  0.3509  0.2414
  726UNK    H02 6528   2.139   2.698   1.807  1.2078  2.1131  3.0483
  726UNK    C03 6529   2.242   2.881   1.781  0.2535 -0.0897 -0.5590
  726UNK    C04 6530   2.198   2.970   1.892 -0.3148 -0.3097  0.3758
  726UNK    F05 6531   2.079   3.029   1.867 -0.2077  0.2826  0.7111
  726UNK    F06 6532   2.192   2.910   2.012 -0.1686 -0.0712 -0.4600
  726UNK    F07 6533   2.290   3.068   1.903 -0.0847 -0.3752 -0.6036
  726UNK    H08 6534   2.334   2.897   1.726  0.9710 -2.7213 -0.2663
  727UNK    F00 6535   1.206   0.802   1.416  0.4652  0.4948 -0.2775
  727UNK    C01 6536   1.219   0.786   1.549  0.8239  0.3806  0.6241
  727UNK    H02 6537   1.303   0.841   1.593  0.6567  1.7856 -0.7302
  727UNK    C03 6538   1.166   0.674   1.598 -0.0659  0.1406  0.2938
  727UNK    C04 6539   1.128   0.661   1.738  0.2260  0.3926  0.5597
  727UNK    F05 6540   1.217   0.729   1.809 -0.1947 -0.1013  0.2772
  727UNK    F06 6541   0.996   0.695   1.759 -0.1862  0.3101  0.1171
  727UNK    F07 6542   1.137   0.532   1.786 -0.1919  0.0853  0.0457
  727UNK    H08 6543   1.196   0.577   1.559  0.0639  0.0410  0.6330
  728UNK    F00 6544   3.600   4.511   0.377  0.4827  0.1597  0.1109
  728UNK    C01 6545   3.590   4.526   0.511  0.9265  0.9836  0.4813
  728UNK    H02 6546   3.674   4.476   0.560  0.9664 -0.0885 -0.6272
  728UNK    C03 6547   3.487   4.586   0.564 -0.1999  0.0564 -0.3348
  728UNK    C04 6548   3.351   4.532   0.564 -0.6672 -0.3835 -0.4721
  728UNK    F05 6549   3.240   4.596   0.599 -0.5051  0.2559 -0.1824
  728UNK    F06 6550   3.329   4.494   0.437 -0.2703  0.2280  0.5268
  728UNK    F07 6551   3.357   4.425   0.647 -0.0843  0.6092 -0.1842
  728UNK    H08 6552   3.492   4.694   0.572 -1.2221  0.2297 -1.7613
  729UNK    F00 6553   3.979   2.267   0.777  0.0224  0.6825  0.8508
  729UNK    C01 6554   3.921   2.386   0.787  0.0572 -0.2050  0.6947
  729UNK    H02 6555   3.850   2.394   0.705  1.1757  2.4091 -0.1412
  729UNK    C03 6556   3.928   2.457   0.895  0.2768  0.5899 -0.3800
  729UNK    C04 6557   3.907   2.401   1.034  0.1562 -0.1119  0.8204
  729UNK    F05 6558   3.908   2.506   1.119 -0.0980 -0.3287  0.6184
  729UNK    F06 6559   3.794   2.333   1.053  0.6233  0.1507 -0.0694
  729UNK    F07 6560   4.012   2.321   1.068  0.0282  0.3572  0.5190
  729UNK    H08 6561   3.965   2.558   0.888  2.0175 -0.1115 -2.4098
  730UNK    F00 6562   2.191   1.464   4.151 -0.6569 -0.1353 -0.2878
  730UNK    C01 6563   2.306   1.400   4.120  0.4076  0.0665 -0.3361
  730UNK    H02 6564   2.292   1.292   4.115  0.1264  0.0740  0.2430
  730UNK    C03 6565   2.418   1.455   4.160 -0.7011  0.1904  0.2743
  730UNK    C04 6566   2.488   1.429   4.287  0.6818  0.0362  0.5074
  730UNK    F05 6567   2.397   1.397   4.389 -0.0571  0.5787 -0.1039
  730UNK    F06 6568   2.574   1.327   4.285  0.1831 -0.2164 -0.4489
  730UNK    F07 6569   2.557   1.540   4.321 -0.4064  0.2065  0.1835
  730UNK    H08 6570   2.439   1.554   4.122  1.5475 -0.1067  0.6284
  731UNK    F00 6571   4.742   3.795   3.817  0.2668  0.4386 -0.4509
  731UNK    C01 6572   4.808   3.904   3.854 -0.1512  0.2013  1.0661
  731UNK    H02 6573   4.831   3.968   3.769 -1.0327 -1.2410 -0.3221
  731UNK    C03 6574   4.822   3.920   3.980  0.9429 -0.1011 -0.1931
  731UNK    C04 6575   4.860   4.053   4.037 -0.6333  0.1692 -0.8451
  731UNK    F05 6576   4.781   4.148   4.005  0.0559 -0.4521  0.1712
  731UNK    F06 6577   4.873   4.042   4.173 -0.2188  0.0579 -0.1233
  731UNK    F07 6578   4.983   4.079   3.993  0.6677 -0.2952 -0.0635
  731UNK    H08 6579   4.818   3.837   4.048  0.4888  1.1078  1.3183
  732UNK    F00 6580   1.216   1.124   3.651 -0.1126 -0.0349  0.4437
  732UNK    C01 6581   1.337   1.162   3.694  0.2875 -0.4269  0.1990
  732UNK    H02 6582   1.373   1.080   3.757 -0.4109 -0.2306  0.8671
  732UNK    C03 6583   1.375   1.285   3.677  0.4920  0.2106  0.3164
  732UNK    C04 6584   1.382   1.349   3.544 -0.0399  0.4147  0.3377
  732UNK    F05 6585   1.474   1.441   3.554  0.4518 -0.5419  0.1775
  732UNK    F06 6586   1.411   1.267   3.442  0.4388 -0.0736 -0.0108
  732UNK    F07 6587   1.266   1.412   3.506  0.3001  0.4341  0.8931
  732UNK    H08 6588   1.353   1.361   3.751  1.3458  0.9712 -0.1769
  733UNK    F00 6589   1.565   4.100   0.702 -0.1692 -0.4202  0.2721
  733UNK    C01 6590   1.488   4.089   0.806 -0.3234 -0.2022 -0.0678
  733UNK    H02 6591   1.542   4.104   0.899  2.4474  1.7759 -1.8356
  733UNK    C03 6592   1.364   4.141   0.785  0.0855  0.6527  0.7527
  733UNK    C04 6593   1.275   4.195   0.889 -0.4965 -0.0474 -0.3601
  733UNK    F05 6594   1.302   4.132   1.006 -0.1397  0.1205 -0.2161
  733UNK    F06 6595   1.289   4.333   0.909 -0.4803  0.0235 -0.5184
  733UNK    F07 6596   1.143   4.181   0.845 -0.0115  0.0257  0.1218
  733UNK    H08 6597   1.335   4.171   0.686 -2.3617  1.6058  1.6893
  734UNK    F00 6598   1.382   4.165   4.826  0.1945  0.1105 -0.1613
  734UNK    C01 6599   1.329   4.069   4.909  0.3617 -0.2013  0.6881
  734UNK    H02 6600   1.343   3.972   4.861 -0.8016 -0.3395  0.5881
  734UNK    C03 6601   1.250   4.109   5.007  0.3940 -0.3722  0.3024
  734UNK    C04 6602   1.296   4.163   5.136  1.3224 -0.0434 -0.3608
  734UNK    F05 6603   1.412   4.108   5.180  0.0439  0.0498 -0.0791
  734UNK    F06 6604   1.302   4.297   5.143 -0.2369  0.2751 -0.3914
  734UNK    F07 6605   1.205   4.126   5.230 -0.1105  1.3057 -0.1896
  734UNK    H08 6606   1.142   4.103   5.006  0.3957 -0.4413  0.3998
  735UNK    F00 6607   1.034   3.417   2.101 -0.1347 -0.3702 -0.0319
  735UNK    C01 6608   0.977   3.325   2.173  0.0551 -0.1751 -0.2707
  735UNK    H02 6609   0.927   3.364   2.262  2.1600  1.5789  0.2124
  735UNK    C03 6610   1.003   3.197   2.145  0.1310  0.2940 -0.1601
  735UNK    C04 6611   0.917   3.075   2.175  0.9534 -0.5097  0.7737
  735UNK    F05 6612   0.843   3.018   2.075 -0.4646  0.0709  0.3934
  735UNK    F06 6613   1.000   2.985   2.225 -0.9473  0.3233  1.2426
  735UNK    F07 6614   0.835   3.103   2.280  0.2998  0.4973 -0.0544
  735UNK    H08 6615   1.100   3.166   2.108  0.6055 -0.0039  1.2448
  736UNK    F00 6616   3.489   4.429   4.781  0.4937 -0.2513  0.4513
  736UNK    C01 6617   3.495   4.319   4.856  0.0623  0.0407 -0.5143
  736UNK    H02 6618   3.527   4.230   4.801 -1.8656 -0.9571 -0.1138
  736UNK    C03 6619   3.445   4.320   4.984 -0.0755  0.4959  0.5211
  736UNK    C04 6620   3.461   4.214   5.086  0.3638 -0.0564 -0.7094
  736UNK    F05 6621   3.356   4.219   5.168 -0.1591  0.4269  0.5027
  736UNK    F06 6622   3.463   4.092   5.024  0.3171  0.1297  0.3245
  736UNK    F07 6623   3.568   4.232   5.166  0.0628  0.1933 -0.3647
  736UNK    H08 6624   3.382   4.399   5.022  0.3690 -0.3561  3.2721
  737UNK    F00 6625   2.656   1.335   3.933  0.3887  0.1260 -0.1073
  737UNK    C01 6626   2.746   1.305   3.836  0.1037  0.3563  0.4729
  737UNK    H02 6627   2.712   1.212   3.789 -0.3149  1.1576 -0.8769
  737UNK    C03 6628   2.870   1.348   3.839 -0.3194 -0.0709 -0.0770
  737UNK    C04 6629   2.934   1.370   3.711 -0.4262 -0.3863  0.0255
  737UNK    F05 6630   3.067   1.366   3.729 -1.0587 -0.4105 -0.5699
  737UNK    F06 6631   2.911   1.260   3.633 -0.0354 -0.7204  0.4597
  737UNK    F07 6632   2.901   1.490   3.660 -0.6315  0.0657 -0.2022
  737UNK    H08 6633   2.927   1.331   3.930 -0.6746 -1.4495 -0.0797
  738UNK    F00 6634   4.500   3.284   2.436  0.0481  0.7819 -0.4781
  738UNK    C01 6635   4.470   3.162   2.388 -0.2915 -0.3282 -0.3547
  738UNK    H02 6636   4.373   3.119   2.410 -0.5360 -0.9616 -2.4381
  738UNK    C03 6637   4.554   3.109   2.303 -0.5511  0.8070  0.7209
  738UNK    C04 6638   4.659   3.022   2.351 -0.1901  0.1300 -0.1830
  738UNK    F05 6639   4.760   3.030   2.260  0.0746 -0.7044  0.4070
  738UNK    F06 6640   4.702   3.065   2.477  0.3219 -0.4571  0.3727
  738UNK    F07 6641   4.609   2.895   2.369 -1.0004 -0.2506  0.3347
  738UNK    H08 6642   4.601   3.180   2.237 -1.1845  1.0207  0.4872
  739UNK    F00 6643   3.669   1.815   3.995 -0.1630 -0.1663 -0.2096
  739UNK    C01 6644   3.801   1.783   3.994 -0.0771 -0.1594 -0.2462
  739UNK    H02 6645   3.833   1.690   3.946 -0.9637 -0.9617  0.6442
  739UNK    C03 6646   3.868   1.867   4.065  0.0135  0.3114 -0.5217
  739UNK    C04 6647   4.002   1.919   4.037  0.0301 -0.0308  0.7623
  739UNK    F05 6648   4.078   1.817   3.985 -0.1746 -0.5727  0.0358
  739UNK    F06 6649   3.990   2.022   3.948 -0.2895 -0.7273  0.4430
  739UNK    F07 6650   4.061   1.958   4.148  0.1542  0.1449  0.4289
  739UNK    H08 6651   3.815   1.918   4.144 -1.0157 -0.6893 -0.5378
  740UNK    F00 6652   0.559   4.029   1.871 -0.5469 -0.0128 -0.5868
  740UNK    C01 6653   0.435   4.060   1.907 -0.0701  0.3674  0.0513
  740UNK    H02 6654   0.379   3.967   1.896  1.4142 -0.9661  2.7208
  740UNK    C03 6655   0.398   4.182   1.933  0.2648 -0.0433  0.4030
  740UNK    C04 6656   0.263   4.224   1.977  0.0158 -0.1222 -0.1037
  740UNK    F05 6657   0.229   4.216   2.105 -0.3597 -0.1236 -0.1891
  740UNK    F06 6658   0.258   4.356   1.941 -0.0013  0.1601 -0.0498
  740UNK    F07 6659   0.159   4.167   1.912  0.2246  0.3258  0.6644
  740UNK    H08 6660   0.442   4.263   1.876  0.5944 -1.0175 -0.7872
  741UNK    F00 6661   4.133   3.797   3.411 -0.3318  0.1508 -0.2450
  741UNK    C01 6662   4.004   3.779   3.444  0.2092 -0.0953 -0.2612
  741UNK    H02 6663   3.973   3.676   3.426  2.5542 -0.6734 -1.3737
  741UNK    C03 6664   3.939   3.879   3.508 -0.8015 -0.6037  0.4237
  741UNK    C04 6665   3.858   3.972   3.422  0.2576 -0.0362  0.3145
  741UNK    F05 6666   3.933   4.021   3.322  0.4295  0.4036  0.0421
  741UNK    F06 6667   3.746   3.910   3.373  0.6629 -0.0931 -0.5550
  741UNK    F07 6668   3.818   4.082   3.493  0.1501 -0.2641 -0.8141
  741UNK    H08 6669   3.970   3.915   3.605  0.9462  0.4981 -0.4812
  742UNK    F00 6670   0.088   4.798   4.450  0.6676  0.0796 -0.0508
  742UNK    C01 6671   0.171   4.699   4.488  0.5989 -0.4716  0.2250
  742UNK    H02 6672   0.112   4.628   4.545  0.3802 -0.7778 -0.3787
  742UNK    C03 6673   0.287   4.685   4.429  0.0116  0.0803  0.6792
  742UNK    C04 6674   0.358   4.560   4.409  0.2906 -0.5885 -0.7460
  742UNK    F05 6675   0.279   4.474   4.351  0.1549  0.2403  0.3136
  742UNK    F06 6676   0.461   4.585   4.326 -0.2171 -0.0209  0.2935
  742UNK    F07 6677   0.426   4.511   4.517 -0.2238  0.3754 -0.4410
  742UNK    H08 6678   0.332   4.777   4.395 -0.9348  1.0562  1.9674
  743UNK    F00 6679   1.065   3.592   0.448  0.0926  0.2486 -0.1506
  743UNK    C01 6680   0.991   3.553   0.345 -0.1803  0.1865  0.7397
  743UNK    H02 6681   0.893   3.602   0.348 -0.3824  0.0726 -1.8405
  743UNK    C03 6682   1.047   3.501   0.236  0.5435 -0.3896 -0.4990
  743UNK    C04 6683   0.994   3.529   0.101  0.6861 -0.2208  0.1776
  743UNK    F05 6684   1.003   3.661   0.073 -0.1535 -0.2686  0.1445
  743UNK    F06 6685   1.059   3.461   0.006 -0.1175  0.2464  0.1754
  743UNK    F07 6686   0.862   3.508   0.079  0.1505  0.2517  0.0666
  743UNK    H08 6687   1.124   3.427   0.251  1.5889  0.3492 -1.8804
  744UNK    F00 6688   2.287   0.028   1.300 -0.2759  0.1989 -0.2733
  744UNK    C01 6689   2.347   0.004   1.409 -0.1158  1.0764 -0.0797
  744UNK    H02 6690   2.416  -0.079   1.395 -1.1311 -0.2677  2.3823
  744UNK    C03 6691   2.277   0.027   1.514  0.8359  0.1615  0.4760
  744UNK    C04 6692   2.328   0.065   1.646  0.5003  0.3040  0.1957
  744UNK    F05 6693   2.256  -0.004   1.734  0.3580  0.9746 -0.2077
  744UNK    F06 6694   2.458   0.029   1.664  0.3195  0.2107 -0.0886
  744UNK    F07 6695   2.305   0.199   1.679 -0.1584  0.3161  1.0410
  744UNK    H08 6696   2.173   0.053   1.503  0.6013 -1.3620 -1.4109
  745UNK    F00 6697   3.766   4.819   0.263  0.3303 -0.4759  0.0401
  745UNK    C01 6698   3.701   4.758   0.164  0.1241  0.0871  0.0111
  745UNK    H02 6699   3.597   4.744   0.196 -0.1815  0.4310 -0.7793
  745UNK    C03 6700   3.761   4.701   0.060 -0.8973 -0.2219  0.0353
  745UNK    C04 6701   3.856   4.588   0.063  0.2603  0.2041 -0.0549
  745UNK    F05 6702   3.973   4.605   0.117 -0.0169  0.1147 -0.2408
  745UNK    F06 6703   3.802   4.487   0.132 -0.1505  0.9025 -0.4023
  745UNK    F07 6704   3.869   4.558  -0.068  0.1694  0.5858  0.3839
  745UNK    H08 6705   3.754   4.764  -0.028 -2.0932  0.6236  0.6853
  746UNK    F00 6706   4.483   4.803   2.362 -0.2182  0.0486 -0.8805
  746UNK    C01 6707   4.528   4.755   2.246  0.1420  0.7468  0.5740
  746UNK    H02 6708   4.606   4.679   2.254 -1.1084 -0.4175  2.4611
  746UNK    C03 6709   4.500   4.801   2.125  0.1038  0.6741  0.2000
  746UNK    C04 6710   4.506   4.711   2.005 -0.1717 -0.3226 -0.4641
  746UNK    F05 6711   4.625   4.653   1.995  0.1037 -0.4573 -0.5589
  746UNK    F06 6712   4.408   4.624   2.024  0.2903 -0.2590  0.2019
  746UNK    F07 6713   4.476   4.784   1.901 -0.3015 -0.1270 -0.0934
  746UNK    H08 6714   4.508   4.906   2.101 -2.1231  1.4473  2.4138
  747UNK    F00 6715   1.607   2.592   2.718  0.2523  0.0742 -0.2401
  747UNK    C01 6716   1.715   2.518   2.744 -0.5945 -0.3932  0.4188
  747UNK    H02 6717   1.787   2.532   2.663  0.3651  1.4622  1.5418
  747UNK    C03 6718   1.727   2.493   2.873  0.0457 -0.1119 -0.4004
  747UNK    C04 6719   1.855   2.457   2.925 -0.6562  0.5103  0.2286
  747UNK    F05 6720   1.847   2.394   3.039  0.1103 -0.6269  0.2172
  747UNK    F06 6721   1.910   2.367   2.836 -0.6620  0.3540  0.4614
  747UNK    F07 6722   1.933   2.568   2.933 -0.1931 -0.2640 -0.1528
  747UNK    H08 6723   1.642   2.468   2.935  0.2909 -0.8787 -0.3522
  748UNK    F00 6724   0.930   2.241   1.636  0.3223  0.1938  0.2684
  748UNK    C01 6725   0.952   2.337   1.726  0.3714 -0.4138 -0.2655
  748UNK    H02 6726   0.885   2.423   1.734 -0.3829 -1.0790  0.7353
  748UNK    C03 6727   1.074   2.330   1.782  0.0440  1.1265  0.1837
  748UNK    C04 6728   1.111   2.392   1.913 -0.3009  0.0010  0.1233
  748UNK    F05 6729   1.243   2.406   1.914 -0.4540  0.2639 -0.0633
  748UNK    F06 6730   1.053   2.515   1.922 -0.3167  0.1584 -0.1372
  748UNK    F07 6731   1.083   2.309   2.015  0.5692 -0.0775 -0.0287
  748UNK    H08 6732   1.152   2.286   1.722 -2.1910  0.1934 -2.1823
  749UNK    F00 6733   4.665   0.298   3.348  0.0286  0.2928 -0.5270
  749UNK    C01 6734   4.791   0.262   3.324  0.1156  0.3715  0.0429
  749UNK    H02 6735   4.851   0.270   3.415 -0.3967 -0.3345  0.4519
  749UNK    C03 6736   4.833   0.222   3.202  1.1897 -0.2793 -0.3374
  749UNK    C04 6737   4.847   0.319   3.089 -0.7045 -0.2126  0.4263
  749UNK    F05 6738   4.760   0.422   3.096 -0.0259  0.6184  0.1854
  749UNK    F06 6739   4.973   0.374   3.078 -0.3786  0.0969 -0.1724
  749UNK    F07 6740   4.819   0.262   2.963 -0.2816  0.3007 -0.1179
  749UNK    H08 6741   4.792   0.129   3.167  0.1635  0.5162 -1.3285
  750UNK    F00 6742   1.248   3.702   2.717 -0.4165  0.1570  0.1771
  750UNK    C01 6743   1.370   3.664   2.736 -0.4599  0.3746  0.4815
  750UNK    H02 6744   1.404   3.615   2.645 -0.3975  0.6920  0.3339
  750UNK    C03 6745   1.454   3.728   2.820 -0.1148  0.1337 -0.0855
  750UNK    C04 6746   1.596   3.699   2.830 -0.2508 -0.6034 -0.4060
  750UNK    F05 6747   1.645   3.729   2.953 -0.0839  0.1352 -0.1142
  750UNK    F06 6748   1.612   3.567   2.824  0.0997 -0.1722  0.0951
  750UNK    F07 6749   1.674   3.763   2.740 -0.0533  0.0656  0.4622
  750UNK    H08 6750   1.426   3.813   2.881  0.9419 -0.9732  2.0549
  751UNK    F00 6751   2.338   3.703   1.459  0.2560 -0.0973 -0.3295
  751UNK    C01 6752   2.467   3.682   1.467 -0.1197  1.0707  0.1554
  751UNK    H02 6753   2.514   3.725   1.379  0.3954  1.3337  0.5492
  751UNK    C03 6754   2.523   3.629   1.575 -0.0420  0.7525 -0.0929
  751UNK    C04 6755   2.648   3.678   1.623  0.0003 -0.2716 -0.7727
  751UNK    F05 6756   2.694   3.622   1.736  0.1881 -0.2477 -0.9294
  751UNK    F06 6757   2.738   3.671   1.521  0.1435  0.1245  0.2837
  751UNK    F07 6758   2.634   3.806   1.645  0.0654  0.0710  0.6278
  751UNK    H08 6759   2.471   3.571   1.649  0.2980  0.3098 -0.1909
  752UNK    F00 6760   2.135   3.375   2.297 -0.2398 -0.3038 -0.0998
  752UNK    C01 6761   2.071   3.320   2.199 -1.2378  0.0797 -0.0334
  752UNK    H02 6762   2.092   3.368   2.103 -1.8960 -0.0655 -0.2561
  752UNK    C03 6763   1.968   3.246   2.213  0.5533  0.1934  0.4224
  752UNK    C04 6764   1.955   3.162   2.333 -0.2657  0.1358  0.5913
  752UNK    F05 6765   2.078   3.119   2.377 -0.0383  0.1820 -0.2054
  752UNK    F06 6766   1.889   3.231   2.432  0.2075 -0.0440 -0.6185
  752UNK    F07 6767   1.891   3.045   2.305  0.6927  0.3849  0.4807
  752UNK    H08 6768   1.876   3.300   2.192  1.1824  1.5633  1.0407
  753UNK    F00 6769   1.478   3.590   1.559 -0.2329  0.3613 -0.2235
  753UNK    C01 6770   1.546   3.674   1.485 -0.0492 -0.1163 -0.3677
  753UNK    H02 6771   1.479   3.735   1.425  0.1574  0.9690  0.4835
  753UNK    C03 6772   1.678   3.702   1.500 -0.0543 -0.5383  0.1438
  753UNK    C04 6773   1.757   3.810   1.430  0.5963  0.0666 -0.2509
  753UNK    F05 6774   1.712   3.926   1.466 -0.2056 -0.7976 -0.4087
  753UNK    F06 6775   1.891   3.809   1.454 -0.7082 -0.1208 -0.0442
  753UNK    F07 6776   1.744   3.807   1.294 -0.2744  0.2097 -0.1352
  753UNK    H08 6777   1.728   3.666   1.588  0.0020 -1.5075 -0.2640
  754UNK    F00 6778   0.483   1.382   1.859  0.1772  0.9644 -0.0550
  754UNK    C01 6779   0.394   1.286   1.836  0.1311 -0.0211  0.4638
  754UNK    H02 6780   0.409   1.219   1.920 -0.2158 -0.1609  0.4134
  754UNK    C03 6781   0.394   1.239   1.709  0.0891  0.3424 -0.3535
  754UNK    C04 6782   0.281   1.174   1.640 -0.1175  0.5218  0.0314
  754UNK    F05 6783   0.203   1.270   1.584  0.3025 -0.1213 -0.2588
  754UNK    F06 6784   0.341   1.094   1.545  0.0650 -0.2286  0.4402
  754UNK    F07 6785   0.200   1.109   1.722 -0.2598  0.7063 -0.0723
  754UNK    H08 6786   0.468   1.277   1.640 -1.0368  0.9223 -1.2888
  755UNK    F00 6787   3.651   3.488   0.165  0.8491 -0.0388 -0.0284
  755UNK    C01 6788   3.743   3.441   0.078 -0.1631 -0.5925 -0.3640
  755UNK    H02 6789   3.837   3.420   0.129 -0.2477 -1.1300 -0.4230
  755UNK    C03 6790   3.686   3.364  -0.013 -0.2854 -0.3194 -0.3046
  755UNK    C04 6791   3.784   3.276  -0.092  0.4826 -0.2373  0.6625
  755UNK    F05 6792   3.710   3.206  -0.180 -0.1838  0.3349  0.4713
  755UNK    F06 6793   3.877   3.359  -0.146  0.5510 -0.2708  0.2267
  755UNK    F07 6794   3.851   3.189  -0.017 -0.2784  0.0451  0.5672
  755UNK    H08 6795   3.605   3.406  -0.070 -0.0231 -1.0445 -1.2396
  756UNK    F00 6796   2.307   0.677   2.214  0.5985 -0.2337 -0.0209
  756UNK    C01 6797   2.179   0.624   2.205 -0.5470  0.7685 -0.0486
  756UNK    H02 6798   2.176   0.540   2.275 -1.8577 -0.2684 -1.2777
  756UNK    C03 6799   2.080   0.677   2.136 -0.0628  0.2036  0.4331
  756UNK    C04 6800   2.085   0.694   1.986  0.5179  0.1410  0.4979
  756UNK    F05 6801   2.019   0.803   1.952 -0.0761 -0.0949 -0.2827
  756UNK    F06 6802   2.210   0.713   1.941 -0.0485 -0.2029 -0.6383
  756UNK    F07 6803   2.035   0.587   1.918  0.4408 -0.0416 -0.2267
  756UNK    H08 6804   1.987   0.711   2.178 -0.1702  0.9851 -0.4121
  757UNK    F00 6805   1.939   2.914   2.689 -0.3688 -0.8773  0.5913
  757UNK    C01 6806   2.032   2.957   2.777 -0.0108 -0.0078  0.5409
  757UNK    H02 6807   2.051   3.063   2.759  0.7288 -0.2594 -0.2514
  757UNK    C03 6808   2.028   2.901   2.895  0.4518  0.6175  0.1548
  757UNK    C04 6809   2.056   2.975   3.019 -0.3023 -0.3920 -0.5928
  757UNK    F05 6810   2.131   3.089   3.000 -0.5806 -0.7475 -0.1905
  757UNK    F06 6811   1.940   3.015   3.076  0.0279 -0.0460  0.1220
  757UNK    F07 6812   2.124   2.905   3.111  0.4554  0.0127 -0.2865
  757UNK    H08 6813   1.971   2.811   2.914  1.4786  0.1263  0.9873
  758UNK    F00 6814   0.205   4.367   4.657  0.6919  0.1398  0.4283
  758UNK    C01 6815   0.298   4.356   4.748 -0.7345 -0.0955  0.2384
  758UNK    H02 6816   0.380   4.290   4.719 -2.1047 -1.0829 -1.5910
  758UNK    C03 6817   0.317   4.457   4.829 -0.4968  0.1539 -0.3985
  758UNK    C04 6818   0.452   4.484   4.894  0.1322  0.1932 -0.2626
  758UNK    F05 6819   0.443   4.558   5.014 -0.0803 -0.3739  0.8132
  758UNK    F06 6820   0.522   4.374   4.927  0.0681 -0.0162 -0.1231
  758UNK    F07 6821   0.519   4.541   4.791 -0.5143 -0.2844 -0.2452
  758UNK    H08 6822   0.237   4.495   4.891 -0.6457  0.7395 -0.9396
  759UNK    F00 6823   0.813   0.344   4.106 -0.0125  0.3842  0.1315
  759UNK    C01 6824   0.767   0.240   4.176 -0.6146  0.0445  0.3583
  759UNK    H02 6825   0.718   0.169   4.110 -0.1468  0.1928 -0.1583
  759UNK    C03 6826   0.726   0.263   4.300  1.4499  0.3950 -0.9495
  759UNK    C04 6827   0.585   0.260   4.341  0.0176 -0.7311  0.2545
  759UNK    F05 6828   0.510   0.339   4.259  0.2353  0.6918  0.2817
  759UNK    F06 6829   0.523   0.140   4.335  0.0584 -0.0764  0.1804
  759UNK    F07 6830   0.567   0.303   4.469 -0.7848  0.1458  0.3673
  759UNK    H08 6831   0.784   0.314   4.376 -0.2932 -0.2489  0.8759
  760UNK    F00 6832   0.117   0.959   3.524  0.0658 -0.4715 -0.3148
  760UNK    C01 6833   0.240   1.001   3.557 -0.4360  0.0635  0.9935
  760UNK    H02 6834   0.258   1.104   3.526 -1.3794 -0.0316  0.0608
  760UNK    C03 6835   0.331   0.908   3.575  0.5119 -0.6629 -0.7240
  760UNK    C04 6836   0.404   0.845   3.466  0.4041 -0.1158 -0.2683
  760UNK    F05 6837   0.465   0.732   3.493 -0.8030 -0.4903  0.1663
  760UNK    F06 6838   0.321   0.830   3.362  1.0130  0.0845  0.0067
  760UNK    F07 6839   0.502   0.936   3.426 -0.2544 -0.3595 -0.2107
  760UNK    H08 6840   0.317   0.831   3.650  0.0185 -1.5612 -1.7112
   4.83927   4.83927   4.83927
