GROtesk MACabre and Sinister
 4800
    1ZrO2    ZR    1   0.023   0.145   1.900
    1ZrO2    ZO    2   0.095   0.032   1.565
    1ZrO2    ZO    3   0.129   0.286   1.738
    2ZrO2    ZR    4   0.240   0.145   1.640
    2ZrO2    ZO    5   0.135   0.286   1.997
    2ZrO2    ZO    6   0.169   0.032   1.824
    3ZrO2    ZR    7   0.287   0.379   1.858
    3ZrO2    ZO    8   0.358   0.491   1.673
    3ZrO2    ZO    9   0.392   0.237   1.500
    4ZrO2    ZR   10   0.503   0.379   1.598
    4ZrO2    ZO   11   0.398   0.237   1.760
    4ZrO2    ZO   12   0.432   0.491   1.933
    5ZrO2    ZR   13   0.550   0.145   1.900
    5ZrO2    ZO   14   0.622   0.032   1.565
    5ZrO2    ZO   15   0.655   0.286   1.738
    6ZrO2    ZR   16   0.767   0.145   1.640
    6ZrO2    ZO   17   0.661   0.286   1.997
    6ZrO2    ZO   18   0.695   0.032   1.824
    7ZrO2    ZR   19   0.813   0.379   1.858
    7ZrO2    ZO   20   0.885   0.491   1.673
    7ZrO2    ZO   21   0.919   0.237   1.500
    8ZrO2    ZR   22   1.030   0.379   1.598
    8ZrO2    ZO   23   0.925   0.237   1.760
    8ZrO2    ZO   24   0.959   0.491   1.933
    9ZrO2    ZR   25   1.077   0.145   1.900
    9ZrO2    ZO   26   1.148   0.032   1.565
    9ZrO2    ZO   27   1.182   0.286   1.738
   10ZrO2    ZR   28   1.294   0.145   1.640
   10ZrO2    ZO   29   1.188   0.286   1.997
   10ZrO2    ZO   30   1.222   0.032   1.824
   11ZrO2    ZR   31   0.023   0.668   1.900
   11ZrO2    ZO   32   0.095   0.555   1.565
   11ZrO2    ZO   33   0.129   0.810   1.738
   12ZrO2    ZR   34   0.240   0.668   1.640
   12ZrO2    ZO   35   0.135   0.810   1.997
   12ZrO2    ZO   36   0.169   0.555   1.824
   13ZrO2    ZR   37   0.287   0.902   1.858
   13ZrO2    ZO   38   0.358   1.015   1.673
   13ZrO2    ZO   39   0.392   0.761   1.500
   14ZrO2    ZR   40   0.503   0.902   1.598
   14ZrO2    ZO   41   0.398   0.761   1.760
   14ZrO2    ZO   42   0.432   1.015   1.933
   15ZrO2    ZR   43   0.550   0.668   1.900
   15ZrO2    ZO   44   0.622   0.555   1.565
   15ZrO2    ZO   45   0.655   0.810   1.738
   16ZrO2    ZR   46   0.767   0.668   1.640
   16ZrO2    ZO   47   0.661   0.810   1.997
   16ZrO2    ZO   48   0.695   0.555   1.824
   17ZrO2    ZR   49   0.813   0.902   1.858
   17ZrO2    ZO   50   0.885   1.015   1.673
   17ZrO2    ZO   51   0.919   0.761   1.500
   18ZrO2    ZR   52   1.030   0.902   1.598
   18ZrO2    ZO   53   0.925   0.761   1.760
   18ZrO2    ZO   54   0.959   1.015   1.933
   19ZrO2    ZR   55   1.077   0.668   1.900
   19ZrO2    ZO   56   1.148   0.555   1.565
   19ZrO2    ZO   57   1.182   0.810   1.738
   20ZrO2    ZR   58   1.294   0.668   1.640
   20ZrO2    ZO   59   1.188   0.810   1.997
   20ZrO2    ZO   60   1.222   0.555   1.824
   21ZrO2    ZR   61   0.023   1.191   1.900
   21ZrO2    ZO   62   0.095   1.079   1.565
   21ZrO2    ZO   63   0.129   1.333   1.738
   22ZrO2    ZR   64   0.240   1.191   1.640
   22ZrO2    ZO   65   0.135   1.333   1.997
   22ZrO2    ZO   66   0.169   1.079   1.824
   23ZrO2    ZR   67   0.287   1.426   1.858
   23ZrO2    ZO   68   0.358   1.538   1.673
   23ZrO2    ZO   69   0.392   1.284   1.500
   24ZrO2    ZR   70   0.503   1.426   1.598
   24ZrO2    ZO   71   0.398   1.284   1.760
   24ZrO2    ZO   72   0.432   1.538   1.933
   25ZrO2    ZR   73   0.550   1.191   1.900
   25ZrO2    ZO   74   0.622   1.079   1.565
   25ZrO2    ZO   75   0.655   1.333   1.738
   26ZrO2    ZR   76   0.767   1.191   1.640
   26ZrO2    ZO   77   0.661   1.333   1.997
   26ZrO2    ZO   78   0.695   1.079   1.824
   27ZrO2    ZR   79   0.813   1.426   1.858
   27ZrO2    ZO   80   0.885   1.538   1.673
   27ZrO2    ZO   81   0.919   1.284   1.500
   28ZrO2    ZR   82   1.030   1.426   1.598
   28ZrO2    ZO   83   0.925   1.284   1.760
   28ZrO2    ZO   84   0.959   1.538   1.933
   29ZrO2    ZR   85   1.077   1.191   1.900
   29ZrO2    ZO   86   1.148   1.079   1.565
   29ZrO2    ZO   87   1.182   1.333   1.738
   30ZrO2    ZR   88   1.294   1.191   1.640
   30ZrO2    ZO   89   1.188   1.333   1.997
   30ZrO2    ZO   90   1.222   1.079   1.824
   31ZrO2    ZR   91   0.023   1.715   1.900
   31ZrO2    ZO   92   0.095   1.602   1.565
   31ZrO2    ZO   93   0.129   1.857   1.738
   32ZrO2    ZR   94   0.240   1.715   1.640
   32ZrO2    ZO   95   0.135   1.857   1.997
   32ZrO2    ZO   96   0.169   1.602   1.824
   33ZrO2    ZR   97   0.287   1.949   1.858
   33ZrO2    ZO   98   0.358   2.062   1.673
   33ZrO2    ZO   99   0.392   1.807   1.500
   34ZrO2    ZR  100   0.503   1.949   1.598
   34ZrO2    ZO  101   0.398   1.807   1.760
   34ZrO2    ZO  102   0.432   2.062   1.933
   35ZrO2    ZR  103   0.550   1.715   1.900
   35ZrO2    ZO  104   0.622   1.602   1.565
   35ZrO2    ZO  105   0.655   1.857   1.738
   36ZrO2    ZR  106   0.767   1.715   1.640
   36ZrO2    ZO  107   0.661   1.857   1.997
   36ZrO2    ZO  108   0.695   1.602   1.824
   37ZrO2    ZR  109   0.813   1.949   1.858
   37ZrO2    ZO  110   0.885   2.062   1.673
   37ZrO2    ZO  111   0.919   1.807   1.500
   38ZrO2    ZR  112   1.030   1.949   1.598
   38ZrO2    ZO  113   0.925   1.807   1.760
   38ZrO2    ZO  114   0.959   2.062   1.933
   39ZrO2    ZR  115   1.077   1.715   1.900
   39ZrO2    ZO  116   1.148   1.602   1.565
   39ZrO2    ZO  117   1.182   1.857   1.738
   40ZrO2    ZR  118   1.294   1.715   1.640
   40ZrO2    ZO  119   1.188   1.857   1.997
   40ZrO2    ZO  120   1.222   1.602   1.824
   41ZrO2    ZR  121   0.023   2.238   1.900
   41ZrO2    ZO  122   0.095   2.125   1.565
   41ZrO2    ZO  123   0.129   2.380   1.738
   42ZrO2    ZR  124   0.240   2.238   1.640
   42ZrO2    ZO  125   0.135   2.380   1.997
   42ZrO2    ZO  126   0.169   2.125   1.824
   43ZrO2    ZR  127   0.287   2.473   1.858
   43ZrO2    ZO  128   0.358   2.585   1.673
   43ZrO2    ZO  129   0.392   2.331   1.500
   44ZrO2    ZR  130   0.503   2.473   1.598
   44ZrO2    ZO  131   0.398   2.331   1.760
   44ZrO2    ZO  132   0.432   2.585   1.933
   45ZrO2    ZR  133   0.550   2.238   1.900
   45ZrO2    ZO  134   0.622   2.125   1.565
   45ZrO2    ZO  135   0.655   2.380   1.738
   46ZrO2    ZR  136   0.767   2.238   1.640
   46ZrO2    ZO  137   0.661   2.380   1.997
   46ZrO2    ZO  138   0.695   2.125   1.824
   47ZrO2    ZR  139   0.813   2.473   1.858
   47ZrO2    ZO  140   0.885   2.585   1.673
   47ZrO2    ZO  141   0.919   2.331   1.500
   48ZrO2    ZR  142   1.030   2.473   1.598
   48ZrO2    ZO  143   0.925   2.331   1.760
   48ZrO2    ZO  144   0.959   2.585   1.933
   49ZrO2    ZR  145   1.077   2.238   1.900
   49ZrO2    ZO  146   1.148   2.125   1.565
   49ZrO2    ZO  147   1.182   2.380   1.738
   50ZrO2    ZR  148   1.294   2.238   1.640
   50ZrO2    ZO  149   1.188   2.380   1.997
   50ZrO2    ZO  150   1.222   2.125   1.824
   51ZrO2    ZR  151   0.023   0.145   2.419
   51ZrO2    ZO  152   0.095   0.032   2.084
   51ZrO2    ZO  153   0.129   0.286   2.257
   52ZrO2    ZR  154   0.240   0.145   2.159
   52ZrO2    ZO  155   0.135   0.286   2.517
   52ZrO2    ZO  156   0.169   0.032   2.344
   53ZrO2    ZR  157   0.287   0.379   2.378
   53ZrO2    ZO  158   0.358   0.491   2.193
   53ZrO2    ZO  159   0.392   0.237   2.020
   54ZrO2    ZR  160   0.503   0.379   2.118
   54ZrO2    ZO  161   0.398   0.237   2.280
   54ZrO2    ZO  162   0.432   0.491   2.453
   55ZrO2    ZR  163   0.550   0.145   2.419
   55ZrO2    ZO  164   0.622   0.032   2.084
   55ZrO2    ZO  165   0.655   0.286   2.257
   56ZrO2    ZR  166   0.767   0.145   2.159
   56ZrO2    ZO  167   0.661   0.286   2.517
   56ZrO2    ZO  168   0.695   0.032   2.344
   57ZrO2    ZR  169   0.813   0.379   2.378
   57ZrO2    ZO  170   0.885   0.491   2.193
   57ZrO2    ZO  171   0.919   0.237   2.020
   58ZrO2    ZR  172   1.030   0.379   2.118
   58ZrO2    ZO  173   0.925   0.237   2.280
   58ZrO2    ZO  174   0.959   0.491   2.453
   59ZrO2    ZR  175   1.077   0.145   2.419
   59ZrO2    ZO  176   1.148   0.032   2.084
   59ZrO2    ZO  177   1.182   0.286   2.257
   60ZrO2    ZR  178   1.294   0.145   2.159
   60ZrO2    ZO  179   1.188   0.286   2.517
   60ZrO2    ZO  180   1.222   0.032   2.344
   61ZrO2    ZR  181   0.023   0.668   2.419
   61ZrO2    ZO  182   0.095   0.555   2.084
   61ZrO2    ZO  183   0.129   0.810   2.257
   62ZrO2    ZR  184   0.240   0.668   2.159
   62ZrO2    ZO  185   0.135   0.810   2.517
   62ZrO2    ZO  186   0.169   0.555   2.344
   63ZrO2    ZR  187   0.287   0.902   2.378
   63ZrO2    ZO  188   0.358   1.015   2.193
   63ZrO2    ZO  189   0.392   0.761   2.020
   64ZrO2    ZR  190   0.503   0.902   2.118
   64ZrO2    ZO  191   0.398   0.761   2.280
   64ZrO2    ZO  192   0.432   1.015   2.453
   65ZrO2    ZR  193   0.550   0.668   2.419
   65ZrO2    ZO  194   0.622   0.555   2.084
   65ZrO2    ZO  195   0.655   0.810   2.257
   66ZrO2    ZR  196   0.767   0.668   2.159
   66ZrO2    ZO  197   0.661   0.810   2.517
   66ZrO2    ZO  198   0.695   0.555   2.344
   67ZrO2    ZR  199   0.813   0.902   2.378
   67ZrO2    ZO  200   0.885   1.015   2.193
   67ZrO2    ZO  201   0.919   0.761   2.020
   68ZrO2    ZR  202   1.030   0.902   2.118
   68ZrO2    ZO  203   0.925   0.761   2.280
   68ZrO2    ZO  204   0.959   1.015   2.453
   69ZrO2    ZR  205   1.077   0.668   2.419
   69ZrO2    ZO  206   1.148   0.555   2.084
   69ZrO2    ZO  207   1.182   0.810   2.257
   70ZrO2    ZR  208   1.294   0.668   2.159
   70ZrO2    ZO  209   1.188   0.810   2.517
   70ZrO2    ZO  210   1.222   0.555   2.344
   71ZrO2    ZR  211   0.023   1.191   2.419
   71ZrO2    ZO  212   0.095   1.079   2.084
   71ZrO2    ZO  213   0.129   1.333   2.257
   72ZrO2    ZR  214   0.240   1.191   2.159
   72ZrO2    ZO  215   0.135   1.333   2.517
   72ZrO2    ZO  216   0.169   1.079   2.344
   73ZrO2    ZR  217   0.287   1.426   2.378
   73ZrO2    ZO  218   0.358   1.538   2.193
   73ZrO2    ZO  219   0.392   1.284   2.020
   74ZrO2    ZR  220   0.503   1.426   2.118
   74ZrO2    ZO  221   0.398   1.284   2.280
   74ZrO2    ZO  222   0.432   1.538   2.453
   75ZrO2    ZR  223   0.550   1.191   2.419
   75ZrO2    ZO  224   0.622   1.079   2.084
   75ZrO2    ZO  225   0.655   1.333   2.257
   76ZrO2    ZR  226   0.767   1.191   2.159
   76ZrO2    ZO  227   0.661   1.333   2.517
   76ZrO2    ZO  228   0.695   1.079   2.344
   77ZrO2    ZR  229   0.813   1.426   2.378
   77ZrO2    ZO  230   0.885   1.538   2.193
   77ZrO2    ZO  231   0.919   1.284   2.020
   78ZrO2    ZR  232   1.030   1.426   2.118
   78ZrO2    ZO  233   0.925   1.284   2.280
   78ZrO2    ZO  234   0.959   1.538   2.453
   79ZrO2    ZR  235   1.077   1.191   2.419
   79ZrO2    ZO  236   1.148   1.079   2.084
   79ZrO2    ZO  237   1.182   1.333   2.257
   80ZrO2    ZR  238   1.294   1.191   2.159
   80ZrO2    ZO  239   1.188   1.333   2.517
   80ZrO2    ZO  240   1.222   1.079   2.344
   81ZrO2    ZR  241   0.023   1.715   2.419
   81ZrO2    ZO  242   0.095   1.602   2.084
   81ZrO2    ZO  243   0.129   1.857   2.257
   82ZrO2    ZR  244   0.240   1.715   2.159
   82ZrO2    ZO  245   0.135   1.857   2.517
   82ZrO2    ZO  246   0.169   1.602   2.344
   83ZrO2    ZR  247   0.287   1.949   2.378
   83ZrO2    ZO  248   0.358   2.062   2.193
   83ZrO2    ZO  249   0.392   1.807   2.020
   84ZrO2    ZR  250   0.503   1.949   2.118
   84ZrO2    ZO  251   0.398   1.807   2.280
   84ZrO2    ZO  252   0.432   2.062   2.453
   85ZrO2    ZR  253   0.550   1.715   2.419
   85ZrO2    ZO  254   0.622   1.602   2.084
   85ZrO2    ZO  255   0.655   1.857   2.257
   86ZrO2    ZR  256   0.767   1.715   2.159
   86ZrO2    ZO  257   0.661   1.857   2.517
   86ZrO2    ZO  258   0.695   1.602   2.344
   87ZrO2    ZR  259   0.813   1.949   2.378
   87ZrO2    ZO  260   0.885   2.062   2.193
   87ZrO2    ZO  261   0.919   1.807   2.020
   88ZrO2    ZR  262   1.030   1.949   2.118
   88ZrO2    ZO  263   0.925   1.807   2.280
   88ZrO2    ZO  264   0.959   2.062   2.453
   89ZrO2    ZR  265   1.077   1.715   2.419
   89ZrO2    ZO  266   1.148   1.602   2.084
   89ZrO2    ZO  267   1.182   1.857   2.257
   90ZrO2    ZR  268   1.294   1.715   2.159
   90ZrO2    ZO  269   1.188   1.857   2.517
   90ZrO2    ZO  270   1.222   1.602   2.344
   91ZrO2    ZR  271   0.023   2.238   2.419
   91ZrO2    ZO  272   0.095   2.125   2.084
   91ZrO2    ZO  273   0.129   2.380   2.257
   92ZrO2    ZR  274   0.240   2.238   2.159
   92ZrO2    ZO  275   0.135   2.380   2.517
   92ZrO2    ZO  276   0.169   2.125   2.344
   93ZrO2    ZR  277   0.287   2.473   2.378
   93ZrO2    ZO  278   0.358   2.585   2.193
   93ZrO2    ZO  279   0.392   2.331   2.020
   94ZrO2    ZR  280   0.503   2.473   2.118
   94ZrO2    ZO  281   0.398   2.331   2.280
   94ZrO2    ZO  282   0.432   2.585   2.453
   95ZrO2    ZR  283   0.550   2.238   2.419
   95ZrO2    ZO  284   0.622   2.125   2.084
   95ZrO2    ZO  285   0.655   2.380   2.257
   96ZrO2    ZR  286   0.767   2.238   2.159
   96ZrO2    ZO  287   0.661   2.380   2.517
   96ZrO2    ZO  288   0.695   2.125   2.344
   97ZrO2    ZR  289   0.813   2.473   2.378
   97ZrO2    ZO  290   0.885   2.585   2.193
   97ZrO2    ZO  291   0.919   2.331   2.020
   98ZrO2    ZR  292   1.030   2.473   2.118
   98ZrO2    ZO  293   0.925   2.331   2.280
   98ZrO2    ZO  294   0.959   2.585   2.453
   99ZrO2    ZR  295   1.077   2.238   2.419
   99ZrO2    ZO  296   1.148   2.125   2.084
   99ZrO2    ZO  297   1.182   2.380   2.257
  100ZrO2    ZR  298   1.294   2.238   2.159
  100ZrO2    ZO  299   1.188   2.380   2.517
  100ZrO2    ZO  300   1.222   2.125   2.344
  101ZrO2    ZR  301   0.023   0.145   2.939
  101ZrO2    ZO  302   0.095   0.032   2.604
  101ZrO2    ZO  303   0.129   0.286   2.777
  102ZrO2    ZR  304   0.240   0.145   2.679
  102ZrO2    ZO  305   0.135   0.286   3.037
  102ZrO2    ZO  306   0.169   0.032   2.864
  103ZrO2    ZR  307   0.287   0.379   2.898
  103ZrO2    ZO  308   0.358   0.491   2.713
  103ZrO2    ZO  309   0.392   0.237   2.540
  104ZrO2    ZR  310   0.503   0.379   2.638
  104ZrO2    ZO  311   0.398   0.237   2.800
  104ZrO2    ZO  312   0.432   0.491   2.973
  105ZrO2    ZR  313   0.550   0.145   2.939
  105ZrO2    ZO  314   0.622   0.032   2.604
  105ZrO2    ZO  315   0.655   0.286   2.777
  106ZrO2    ZR  316   0.767   0.145   2.679
  106ZrO2    ZO  317   0.661   0.286   3.037
  106ZrO2    ZO  318   0.695   0.032   2.864
  107ZrO2    ZR  319   0.813   0.379   2.898
  107ZrO2    ZO  320   0.885   0.491   2.713
  107ZrO2    ZO  321   0.919   0.237   2.540
  108ZrO2    ZR  322   1.030   0.379   2.638
  108ZrO2    ZO  323   0.925   0.237   2.800
  108ZrO2    ZO  324   0.959   0.491   2.973
  109ZrO2    ZR  325   1.077   0.145   2.939
  109ZrO2    ZO  326   1.148   0.032   2.604
  109ZrO2    ZO  327   1.182   0.286   2.777
  110ZrO2    ZR  328   1.294   0.145   2.679
  110ZrO2    ZO  329   1.188   0.286   3.037
  110ZrO2    ZO  330   1.222   0.032   2.864
  111ZrO2    ZR  331   0.023   0.668   2.939
  111ZrO2    ZO  332   0.095   0.555   2.604
  111ZrO2    ZO  333   0.129   0.810   2.777
  112ZrO2    ZR  334   0.240   0.668   2.679
  112ZrO2    ZO  335   0.135   0.810   3.037
  112ZrO2    ZO  336   0.169   0.555   2.864
  113ZrO2    ZR  337   0.287   0.902   2.898
  113ZrO2    ZO  338   0.358   1.015   2.713
  113ZrO2    ZO  339   0.392   0.761   2.540
  114ZrO2    ZR  340   0.503   0.902   2.638
  114ZrO2    ZO  341   0.398   0.761   2.800
  114ZrO2    ZO  342   0.432   1.015   2.973
  115ZrO2    ZR  343   0.550   0.668   2.939
  115ZrO2    ZO  344   0.622   0.555   2.604
  115ZrO2    ZO  345   0.655   0.810   2.777
  116ZrO2    ZR  346   0.767   0.668   2.679
  116ZrO2    ZO  347   0.661   0.810   3.037
  116ZrO2    ZO  348   0.695   0.555   2.864
  117ZrO2    ZR  349   0.813   0.902   2.898
  117ZrO2    ZO  350   0.885   1.015   2.713
  117ZrO2    ZO  351   0.919   0.761   2.540
  118ZrO2    ZR  352   1.030   0.902   2.638
  118ZrO2    ZO  353   0.925   0.761   2.800
  118ZrO2    ZO  354   0.959   1.015   2.973
  119ZrO2    ZR  355   1.077   0.668   2.939
  119ZrO2    ZO  356   1.148   0.555   2.604
  119ZrO2    ZO  357   1.182   0.810   2.777
  120ZrO2    ZR  358   1.294   0.668   2.679
  120ZrO2    ZO  359   1.188   0.810   3.037
  120ZrO2    ZO  360   1.222   0.555   2.864
  121ZrO2    ZR  361   0.023   1.191   2.939
  121ZrO2    ZO  362   0.095   1.079   2.604
  121ZrO2    ZO  363   0.129   1.333   2.777
  122ZrO2    ZR  364   0.240   1.191   2.679
  122ZrO2    ZO  365   0.135   1.333   3.037
  122ZrO2    ZO  366   0.169   1.079   2.864
  123ZrO2    ZR  367   0.287   1.426   2.898
  123ZrO2    ZO  368   0.358   1.538   2.713
  123ZrO2    ZO  369   0.392   1.284   2.540
  124ZrO2    ZR  370   0.503   1.426   2.638
  124ZrO2    ZO  371   0.398   1.284   2.800
  124ZrO2    ZO  372   0.432   1.538   2.973
  125ZrO2    ZR  373   0.550   1.191   2.939
  125ZrO2    ZO  374   0.622   1.079   2.604
  125ZrO2    ZO  375   0.655   1.333   2.777
  126ZrO2    ZR  376   0.767   1.191   2.679
  126ZrO2    ZO  377   0.661   1.333   3.037
  126ZrO2    ZO  378   0.695   1.079   2.864
  127ZrO2    ZR  379   0.813   1.426   2.898
  127ZrO2    ZO  380   0.885   1.538   2.713
  127ZrO2    ZO  381   0.919   1.284   2.540
  128ZrO2    ZR  382   1.030   1.426   2.638
  128ZrO2    ZO  383   0.925   1.284   2.800
  128ZrO2    ZO  384   0.959   1.538   2.973
  129ZrO2    ZR  385   1.077   1.191   2.939
  129ZrO2    ZO  386   1.148   1.079   2.604
  129ZrO2    ZO  387   1.182   1.333   2.777
  130ZrO2    ZR  388   1.294   1.191   2.679
  130ZrO2    ZO  389   1.188   1.333   3.037
  130ZrO2    ZO  390   1.222   1.079   2.864
  131ZrO2    ZR  391   0.023   1.715   2.939
  131ZrO2    ZO  392   0.095   1.602   2.604
  131ZrO2    ZO  393   0.129   1.857   2.777
  132ZrO2    ZR  394   0.240   1.715   2.679
  132ZrO2    ZO  395   0.135   1.857   3.037
  132ZrO2    ZO  396   0.169   1.602   2.864
  133ZrO2    ZR  397   0.287   1.949   2.898
  133ZrO2    ZO  398   0.358   2.062   2.713
  133ZrO2    ZO  399   0.392   1.807   2.540
  134ZrO2    ZR  400   0.503   1.949   2.638
  134ZrO2    ZO  401   0.398   1.807   2.800
  134ZrO2    ZO  402   0.432   2.062   2.973
  135ZrO2    ZR  403   0.550   1.715   2.939
  135ZrO2    ZO  404   0.622   1.602   2.604
  135ZrO2    ZO  405   0.655   1.857   2.777
  136ZrO2    ZR  406   0.767   1.715   2.679
  136ZrO2    ZO  407   0.661   1.857   3.037
  136ZrO2    ZO  408   0.695   1.602   2.864
  137ZrO2    ZR  409   0.813   1.949   2.898
  137ZrO2    ZO  410   0.885   2.062   2.713
  137ZrO2    ZO  411   0.919   1.807   2.540
  138ZrO2    ZR  412   1.030   1.949   2.638
  138ZrO2    ZO  413   0.925   1.807   2.800
  138ZrO2    ZO  414   0.959   2.062   2.973
  139ZrO2    ZR  415   1.077   1.715   2.939
  139ZrO2    ZO  416   1.148   1.602   2.604
  139ZrO2    ZO  417   1.182   1.857   2.777
  140ZrO2    ZR  418   1.294   1.715   2.679
  140ZrO2    ZO  419   1.188   1.857   3.037
  140ZrO2    ZO  420   1.222   1.602   2.864
  141ZrO2    ZR  421   0.023   2.238   2.939
  141ZrO2    ZO  422   0.095   2.125   2.604
  141ZrO2    ZO  423   0.129   2.380   2.777
  142ZrO2    ZR  424   0.240   2.238   2.679
  142ZrO2    ZO  425   0.135   2.380   3.037
  142ZrO2    ZO  426   0.169   2.125   2.864
  143ZrO2    ZR  427   0.287   2.473   2.898
  143ZrO2    ZO  428   0.358   2.585   2.713
  143ZrO2    ZO  429   0.392   2.331   2.540
  144ZrO2    ZR  430   0.503   2.473   2.638
  144ZrO2    ZO  431   0.398   2.331   2.800
  144ZrO2    ZO  432   0.432   2.585   2.973
  145ZrO2    ZR  433   0.550   2.238   2.939
  145ZrO2    ZO  434   0.622   2.125   2.604
  145ZrO2    ZO  435   0.655   2.380   2.777
  146ZrO2    ZR  436   0.767   2.238   2.679
  146ZrO2    ZO  437   0.661   2.380   3.037
  146ZrO2    ZO  438   0.695   2.125   2.864
  147ZrO2    ZR  439   0.813   2.473   2.898
  147ZrO2    ZO  440   0.885   2.585   2.713
  147ZrO2    ZO  441   0.919   2.331   2.540
  148ZrO2    ZR  442   1.030   2.473   2.638
  148ZrO2    ZO  443   0.925   2.331   2.800
  148ZrO2    ZO  444   0.959   2.585   2.973
  149ZrO2    ZR  445   1.077   2.238   2.939
  149ZrO2    ZO  446   1.148   2.125   2.604
  149ZrO2    ZO  447   1.182   2.380   2.777
  150ZrO2    ZR  448   1.294   2.238   2.679
  150ZrO2    ZO  449   1.188   2.380   3.037
  150ZrO2    ZO  450   1.222   2.125   2.864
  151ZrO2    ZR  451   0.023   0.145   3.459
  151ZrO2    ZO  452   0.095   0.032   3.124
  151ZrO2    ZO  453   0.129   0.286   3.297
  152ZrO2    ZR  454   0.240   0.145   3.199
  152ZrO2    ZO  455   0.135   0.286   3.557
  152ZrO2    ZO  456   0.169   0.032   3.384
  153ZrO2    ZR  457   0.287   0.379   3.417
  153ZrO2    ZO  458   0.358   0.491   3.232
  153ZrO2    ZO  459   0.392   0.237   3.059
  154ZrO2    ZR  460   0.503   0.379   3.158
  154ZrO2    ZO  461   0.398   0.237   3.319
  154ZrO2    ZO  462   0.432   0.491   3.492
  155ZrO2    ZR  463   0.550   0.145   3.459
  155ZrO2    ZO  464   0.622   0.032   3.124
  155ZrO2    ZO  465   0.655   0.286   3.297
  156ZrO2    ZR  466   0.767   0.145   3.199
  156ZrO2    ZO  467   0.661   0.286   3.557
  156ZrO2    ZO  468   0.695   0.032   3.384
  157ZrO2    ZR  469   0.813   0.379   3.417
  157ZrO2    ZO  470   0.885   0.491   3.232
  157ZrO2    ZO  471   0.919   0.237   3.059
  158ZrO2    ZR  472   1.030   0.379   3.158
  158ZrO2    ZO  473   0.925   0.237   3.319
  158ZrO2    ZO  474   0.959   0.491   3.492
  159ZrO2    ZR  475   1.077   0.145   3.459
  159ZrO2    ZO  476   1.148   0.032   3.124
  159ZrO2    ZO  477   1.182   0.286   3.297
  160ZrO2    ZR  478   1.294   0.145   3.199
  160ZrO2    ZO  479   1.188   0.286   3.557
  160ZrO2    ZO  480   1.222   0.032   3.384
  161ZrO2    ZR  481   0.023   0.668   3.459
  161ZrO2    ZO  482   0.095   0.555   3.124
  161ZrO2    ZO  483   0.129   0.810   3.297
  162ZrO2    ZR  484   0.240   0.668   3.199
  162ZrO2    ZO  485   0.135   0.810   3.557
  162ZrO2    ZO  486   0.169   0.555   3.384
  163ZrO2    ZR  487   0.287   0.902   3.417
  163ZrO2    ZO  488   0.358   1.015   3.232
  163ZrO2    ZO  489   0.392   0.761   3.059
  164ZrO2    ZR  490   0.503   0.902   3.158
  164ZrO2    ZO  491   0.398   0.761   3.319
  164ZrO2    ZO  492   0.432   1.015   3.492
  165ZrO2    ZR  493   0.550   0.668   3.459
  165ZrO2    ZO  494   0.622   0.555   3.124
  165ZrO2    ZO  495   0.655   0.810   3.297
  166ZrO2    ZR  496   0.767   0.668   3.199
  166ZrO2    ZO  497   0.661   0.810   3.557
  166ZrO2    ZO  498   0.695   0.555   3.384
  167ZrO2    ZR  499   0.813   0.902   3.417
  167ZrO2    ZO  500   0.885   1.015   3.232
  167ZrO2    ZO  501   0.919   0.761   3.059
  168ZrO2    ZR  502   1.030   0.902   3.158
  168ZrO2    ZO  503   0.925   0.761   3.319
  168ZrO2    ZO  504   0.959   1.015   3.492
  169ZrO2    ZR  505   1.077   0.668   3.459
  169ZrO2    ZO  506   1.148   0.555   3.124
  169ZrO2    ZO  507   1.182   0.810   3.297
  170ZrO2    ZR  508   1.294   0.668   3.199
  170ZrO2    ZO  509   1.188   0.810   3.557
  170ZrO2    ZO  510   1.222   0.555   3.384
  171ZrO2    ZR  511   0.023   1.191   3.459
  171ZrO2    ZO  512   0.095   1.079   3.124
  171ZrO2    ZO  513   0.129   1.333   3.297
  172ZrO2    ZR  514   0.240   1.191   3.199
  172ZrO2    ZO  515   0.135   1.333   3.557
  172ZrO2    ZO  516   0.169   1.079   3.384
  173ZrO2    ZR  517   0.287   1.426   3.417
  173ZrO2    ZO  518   0.358   1.538   3.232
  173ZrO2    ZO  519   0.392   1.284   3.059
  174ZrO2    ZR  520   0.503   1.426   3.158
  174ZrO2    ZO  521   0.398   1.284   3.319
  174ZrO2    ZO  522   0.432   1.538   3.492
  175ZrO2    ZR  523   0.550   1.191   3.459
  175ZrO2    ZO  524   0.622   1.079   3.124
  175ZrO2    ZO  525   0.655   1.333   3.297
  176ZrO2    ZR  526   0.767   1.191   3.199
  176ZrO2    ZO  527   0.661   1.333   3.557
  176ZrO2    ZO  528   0.695   1.079   3.384
  177ZrO2    ZR  529   0.813   1.426   3.417
  177ZrO2    ZO  530   0.885   1.538   3.232
  177ZrO2    ZO  531   0.919   1.284   3.059
  178ZrO2    ZR  532   1.030   1.426   3.158
  178ZrO2    ZO  533   0.925   1.284   3.319
  178ZrO2    ZO  534   0.959   1.538   3.492
  179ZrO2    ZR  535   1.077   1.191   3.459
  179ZrO2    ZO  536   1.148   1.079   3.124
  179ZrO2    ZO  537   1.182   1.333   3.297
  180ZrO2    ZR  538   1.294   1.191   3.199
  180ZrO2    ZO  539   1.188   1.333   3.557
  180ZrO2    ZO  540   1.222   1.079   3.384
  181ZrO2    ZR  541   0.023   1.715   3.459
  181ZrO2    ZO  542   0.095   1.602   3.124
  181ZrO2    ZO  543   0.129   1.857   3.297
  182ZrO2    ZR  544   0.240   1.715   3.199
  182ZrO2    ZO  545   0.135   1.857   3.557
  182ZrO2    ZO  546   0.169   1.602   3.384
  183ZrO2    ZR  547   0.287   1.949   3.417
  183ZrO2    ZO  548   0.358   2.062   3.232
  183ZrO2    ZO  549   0.392   1.807   3.059
  184ZrO2    ZR  550   0.503   1.949   3.158
  184ZrO2    ZO  551   0.398   1.807   3.319
  184ZrO2    ZO  552   0.432   2.062   3.492
  185ZrO2    ZR  553   0.550   1.715   3.459
  185ZrO2    ZO  554   0.622   1.602   3.124
  185ZrO2    ZO  555   0.655   1.857   3.297
  186ZrO2    ZR  556   0.767   1.715   3.199
  186ZrO2    ZO  557   0.661   1.857   3.557
  186ZrO2    ZO  558   0.695   1.602   3.384
  187ZrO2    ZR  559   0.813   1.949   3.417
  187ZrO2    ZO  560   0.885   2.062   3.232
  187ZrO2    ZO  561   0.919   1.807   3.059
  188ZrO2    ZR  562   1.030   1.949   3.158
  188ZrO2    ZO  563   0.925   1.807   3.319
  188ZrO2    ZO  564   0.959   2.062   3.492
  189ZrO2    ZR  565   1.077   1.715   3.459
  189ZrO2    ZO  566   1.148   1.602   3.124
  189ZrO2    ZO  567   1.182   1.857   3.297
  190ZrO2    ZR  568   1.294   1.715   3.199
  190ZrO2    ZO  569   1.188   1.857   3.557
  190ZrO2    ZO  570   1.222   1.602   3.384
  191ZrO2    ZR  571   0.023   2.238   3.459
  191ZrO2    ZO  572   0.095   2.125   3.124
  191ZrO2    ZO  573   0.129   2.380   3.297
  192ZrO2    ZR  574   0.240   2.238   3.199
  192ZrO2    ZO  575   0.135   2.380   3.557
  192ZrO2    ZO  576   0.169   2.125   3.384
  193ZrO2    ZR  577   0.287   2.473   3.417
  193ZrO2    ZO  578   0.358   2.585   3.232
  193ZrO2    ZO  579   0.392   2.331   3.059
  194ZrO2    ZR  580   0.503   2.473   3.158
  194ZrO2    ZO  581   0.398   2.331   3.319
  194ZrO2    ZO  582   0.432   2.585   3.492
  195ZrO2    ZR  583   0.550   2.238   3.459
  195ZrO2    ZO  584   0.622   2.125   3.124
  195ZrO2    ZO  585   0.655   2.380   3.297
  196ZrO2    ZR  586   0.767   2.238   3.199
  196ZrO2    ZO  587   0.661   2.380   3.557
  196ZrO2    ZO  588   0.695   2.125   3.384
  197ZrO2    ZR  589   0.813   2.473   3.417
  197ZrO2    ZO  590   0.885   2.585   3.232
  197ZrO2    ZO  591   0.919   2.331   3.059
  198ZrO2    ZR  592   1.030   2.473   3.158
  198ZrO2    ZO  593   0.925   2.331   3.319
  198ZrO2    ZO  594   0.959   2.585   3.492
  199ZrO2    ZR  595   1.077   2.238   3.459
  199ZrO2    ZO  596   1.148   2.125   3.124
  199ZrO2    ZO  597   1.182   2.380   3.297
  200ZrO2    ZR  598   1.294   2.238   3.199
  200ZrO2    ZO  599   1.188   2.380   3.557
  200ZrO2    ZO  600   1.222   2.125   3.384
  201ZrO2    ZR  601   0.023   2.761   1.900
  201ZrO2    ZO  602   0.095   2.649   1.565
  201ZrO2    ZO  603   0.129   2.903   1.738
  202ZrO2    ZR  604   0.240   2.761   1.640
  202ZrO2    ZO  605   0.135   2.903   1.997
  202ZrO2    ZO  606   0.169   2.649   1.824
  203ZrO2    ZR  607   0.287   2.996   1.858
  203ZrO2    ZO  608   0.358   3.109   1.673
  203ZrO2    ZO  609   0.392   2.854   1.500
  204ZrO2    ZR  610   0.503   2.996   1.598
  204ZrO2    ZO  611   0.398   2.854   1.760
  204ZrO2    ZO  612   0.432   3.109   1.933
  205ZrO2    ZR  613   0.550   2.761   1.900
  205ZrO2    ZO  614   0.622   2.649   1.565
  205ZrO2    ZO  615   0.655   2.903   1.738
  206ZrO2    ZR  616   0.767   2.761   1.640
  206ZrO2    ZO  617   0.661   2.903   1.997
  206ZrO2    ZO  618   0.695   2.649   1.824
  207ZrO2    ZR  619   0.813   2.996   1.858
  207ZrO2    ZO  620   0.885   3.109   1.673
  207ZrO2    ZO  621   0.919   2.854   1.500
  208ZrO2    ZR  622   1.030   2.996   1.598
  208ZrO2    ZO  623   0.925   2.854   1.760
  208ZrO2    ZO  624   0.959   3.109   1.933
  209ZrO2    ZR  625   1.077   2.761   1.900
  209ZrO2    ZO  626   1.148   2.649   1.565
  209ZrO2    ZO  627   1.182   2.903   1.738
  210ZrO2    ZR  628   1.294   2.761   1.640
  210ZrO2    ZO  629   1.188   2.903   1.997
  210ZrO2    ZO  630   1.222   2.649   1.824
  211ZrO2    ZR  631   0.023   3.285   1.900
  211ZrO2    ZO  632   0.095   3.172   1.565
  211ZrO2    ZO  633   0.129   3.427   1.738
  212ZrO2    ZR  634   0.240   3.285   1.640
  212ZrO2    ZO  635   0.135   3.427   1.997
  212ZrO2    ZO  636   0.169   3.172   1.824
  213ZrO2    ZR  637   0.287   3.519   1.858
  213ZrO2    ZO  638   0.358   3.632   1.673
  213ZrO2    ZO  639   0.392   3.378   1.500
  214ZrO2    ZR  640   0.503   3.519   1.598
  214ZrO2    ZO  641   0.398   3.378   1.760
  214ZrO2    ZO  642   0.432   3.632   1.933
  215ZrO2    ZR  643   0.550   3.285   1.900
  215ZrO2    ZO  644   0.622   3.172   1.565
  215ZrO2    ZO  645   0.655   3.427   1.738
  216ZrO2    ZR  646   0.767   3.285   1.640
  216ZrO2    ZO  647   0.661   3.427   1.997
  216ZrO2    ZO  648   0.695   3.172   1.824
  217ZrO2    ZR  649   0.813   3.519   1.858
  217ZrO2    ZO  650   0.885   3.632   1.673
  217ZrO2    ZO  651   0.919   3.378   1.500
  218ZrO2    ZR  652   1.030   3.519   1.598
  218ZrO2    ZO  653   0.925   3.378   1.760
  218ZrO2    ZO  654   0.959   3.632   1.933
  219ZrO2    ZR  655   1.077   3.285   1.900
  219ZrO2    ZO  656   1.148   3.172   1.565
  219ZrO2    ZO  657   1.182   3.427   1.738
  220ZrO2    ZR  658   1.294   3.285   1.640
  220ZrO2    ZO  659   1.188   3.427   1.997
  220ZrO2    ZO  660   1.222   3.172   1.824
  221ZrO2    ZR  661   0.023   3.808   1.900
  221ZrO2    ZO  662   0.095   3.696   1.565
  221ZrO2    ZO  663   0.129   3.950   1.738
  222ZrO2    ZR  664   0.240   3.808   1.640
  222ZrO2    ZO  665   0.135   3.950   1.997
  222ZrO2    ZO  666   0.169   3.696   1.824
  223ZrO2    ZR  667   0.287   4.043   1.858
  223ZrO2    ZO  668   0.358   4.155   1.673
  223ZrO2    ZO  669   0.392   3.901   1.500
  224ZrO2    ZR  670   0.503   4.043   1.598
  224ZrO2    ZO  671   0.398   3.901   1.760
  224ZrO2    ZO  672   0.432   4.155   1.933
  225ZrO2    ZR  673   0.550   3.808   1.900
  225ZrO2    ZO  674   0.622   3.696   1.565
  225ZrO2    ZO  675   0.655   3.950   1.738
  226ZrO2    ZR  676   0.767   3.808   1.640
  226ZrO2    ZO  677   0.661   3.950   1.997
  226ZrO2    ZO  678   0.695   3.696   1.824
  227ZrO2    ZR  679   0.813   4.043   1.858
  227ZrO2    ZO  680   0.885   4.155   1.673
  227ZrO2    ZO  681   0.919   3.901   1.500
  228ZrO2    ZR  682   1.030   4.043   1.598
  228ZrO2    ZO  683   0.925   3.901   1.760
  228ZrO2    ZO  684   0.959   4.155   1.933
  229ZrO2    ZR  685   1.077   3.808   1.900
  229ZrO2    ZO  686   1.148   3.696   1.565
  229ZrO2    ZO  687   1.182   3.950   1.738
  230ZrO2    ZR  688   1.294   3.808   1.640
  230ZrO2    ZO  689   1.188   3.950   1.997
  230ZrO2    ZO  690   1.222   3.696   1.824
  231ZrO2    ZR  691   0.023   4.332   1.900
  231ZrO2    ZO  692   0.095   4.219   1.565
  231ZrO2    ZO  693   0.129   4.473   1.738
  232ZrO2    ZR  694   0.240   4.332   1.640
  232ZrO2    ZO  695   0.135   4.473   1.997
  232ZrO2    ZO  696   0.169   4.219   1.824
  233ZrO2    ZR  697   0.287   4.566   1.858
  233ZrO2    ZO  698   0.358   4.679   1.673
  233ZrO2    ZO  699   0.392   4.424   1.500
  234ZrO2    ZR  700   0.503   4.566   1.598
  234ZrO2    ZO  701   0.398   4.424   1.760
  234ZrO2    ZO  702   0.432   4.679   1.933
  235ZrO2    ZR  703   0.550   4.332   1.900
  235ZrO2    ZO  704   0.622   4.219   1.565
  235ZrO2    ZO  705   0.655   4.473   1.738
  236ZrO2    ZR  706   0.767   4.332   1.640
  236ZrO2    ZO  707   0.661   4.473   1.997
  236ZrO2    ZO  708   0.695   4.219   1.824
  237ZrO2    ZR  709   0.813   4.566   1.858
  237ZrO2    ZO  710   0.885   4.679   1.673
  237ZrO2    ZO  711   0.919   4.424   1.500
  238ZrO2    ZR  712   1.030   4.566   1.598
  238ZrO2    ZO  713   0.925   4.424   1.760
  238ZrO2    ZO  714   0.959   4.679   1.933
  239ZrO2    ZR  715   1.077   4.332   1.900
  239ZrO2    ZO  716   1.148   4.219   1.565
  239ZrO2    ZO  717   1.182   4.473   1.738
  240ZrO2    ZR  718   1.294   4.332   1.640
  240ZrO2    ZO  719   1.188   4.473   1.997
  240ZrO2    ZO  720   1.222   4.219   1.824
  241ZrO2    ZR  721   0.023   4.855   1.900
  241ZrO2    ZO  722   0.095   4.742   1.565
  241ZrO2    ZO  723   0.129   4.997   1.738
  242ZrO2    ZR  724   0.240   4.855   1.640
  242ZrO2    ZO  725   0.135   4.997   1.997
  242ZrO2    ZO  726   0.169   4.742   1.824
  243ZrO2    ZR  727   0.287   5.089   1.858
  243ZrO2    ZO  728   0.358   5.202   1.673
  243ZrO2    ZO  729   0.392   4.948   1.500
  244ZrO2    ZR  730   0.503   5.089   1.598
  244ZrO2    ZO  731   0.398   4.948   1.760
  244ZrO2    ZO  732   0.432   5.202   1.933
  245ZrO2    ZR  733   0.550   4.855   1.900
  245ZrO2    ZO  734   0.622   4.742   1.565
  245ZrO2    ZO  735   0.655   4.997   1.738
  246ZrO2    ZR  736   0.767   4.855   1.640
  246ZrO2    ZO  737   0.661   4.997   1.997
  246ZrO2    ZO  738   0.695   4.742   1.824
  247ZrO2    ZR  739   0.813   5.089   1.858
  247ZrO2    ZO  740   0.885   5.202   1.673
  247ZrO2    ZO  741   0.919   4.948   1.500
  248ZrO2    ZR  742   1.030   5.089   1.598
  248ZrO2    ZO  743   0.925   4.948   1.760
  248ZrO2    ZO  744   0.959   5.202   1.933
  249ZrO2    ZR  745   1.077   4.855   1.900
  249ZrO2    ZO  746   1.148   4.742   1.565
  249ZrO2    ZO  747   1.182   4.997   1.738
  250ZrO2    ZR  748   1.294   4.855   1.640
  250ZrO2    ZO  749   1.188   4.997   1.997
  250ZrO2    ZO  750   1.222   4.742   1.824
  251ZrO2    ZR  751   0.023   2.761   2.419
  251ZrO2    ZO  752   0.095   2.649   2.084
  251ZrO2    ZO  753   0.129   2.903   2.257
  252ZrO2    ZR  754   0.240   2.761   2.159
  252ZrO2    ZO  755   0.135   2.903   2.517
  252ZrO2    ZO  756   0.169   2.649   2.344
  253ZrO2    ZR  757   0.287   2.996   2.378
  253ZrO2    ZO  758   0.358   3.109   2.193
  253ZrO2    ZO  759   0.392   2.854   2.020
  254ZrO2    ZR  760   0.503   2.996   2.118
  254ZrO2    ZO  761   0.398   2.854   2.280
  254ZrO2    ZO  762   0.432   3.109   2.453
  255ZrO2    ZR  763   0.550   2.761   2.419
  255ZrO2    ZO  764   0.622   2.649   2.084
  255ZrO2    ZO  765   0.655   2.903   2.257
  256ZrO2    ZR  766   0.767   2.761   2.159
  256ZrO2    ZO  767   0.661   2.903   2.517
  256ZrO2    ZO  768   0.695   2.649   2.344
  257ZrO2    ZR  769   0.813   2.996   2.378
  257ZrO2    ZO  770   0.885   3.109   2.193
  257ZrO2    ZO  771   0.919   2.854   2.020
  258ZrO2    ZR  772   1.030   2.996   2.118
  258ZrO2    ZO  773   0.925   2.854   2.280
  258ZrO2    ZO  774   0.959   3.109   2.453
  259ZrO2    ZR  775   1.077   2.761   2.419
  259ZrO2    ZO  776   1.148   2.649   2.084
  259ZrO2    ZO  777   1.182   2.903   2.257
  260ZrO2    ZR  778   1.294   2.761   2.159
  260ZrO2    ZO  779   1.188   2.903   2.517
  260ZrO2    ZO  780   1.222   2.649   2.344
  261ZrO2    ZR  781   0.023   3.285   2.419
  261ZrO2    ZO  782   0.095   3.172   2.084
  261ZrO2    ZO  783   0.129   3.427   2.257
  262ZrO2    ZR  784   0.240   3.285   2.159
  262ZrO2    ZO  785   0.135   3.427   2.517
  262ZrO2    ZO  786   0.169   3.172   2.344
  263ZrO2    ZR  787   0.287   3.519   2.378
  263ZrO2    ZO  788   0.358   3.632   2.193
  263ZrO2    ZO  789   0.392   3.378   2.020
  264ZrO2    ZR  790   0.503   3.519   2.118
  264ZrO2    ZO  791   0.398   3.378   2.280
  264ZrO2    ZO  792   0.432   3.632   2.453
  265ZrO2    ZR  793   0.550   3.285   2.419
  265ZrO2    ZO  794   0.622   3.172   2.084
  265ZrO2    ZO  795   0.655   3.427   2.257
  266ZrO2    ZR  796   0.767   3.285   2.159
  266ZrO2    ZO  797   0.661   3.427   2.517
  266ZrO2    ZO  798   0.695   3.172   2.344
  267ZrO2    ZR  799   0.813   3.519   2.378
  267ZrO2    ZO  800   0.885   3.632   2.193
  267ZrO2    ZO  801   0.919   3.378   2.020
  268ZrO2    ZR  802   1.030   3.519   2.118
  268ZrO2    ZO  803   0.925   3.378   2.280
  268ZrO2    ZO  804   0.959   3.632   2.453
  269ZrO2    ZR  805   1.077   3.285   2.419
  269ZrO2    ZO  806   1.148   3.172   2.084
  269ZrO2    ZO  807   1.182   3.427   2.257
  270ZrO2    ZR  808   1.294   3.285   2.159
  270ZrO2    ZO  809   1.188   3.427   2.517
  270ZrO2    ZO  810   1.222   3.172   2.344
  271ZrO2    ZR  811   0.023   3.808   2.419
  271ZrO2    ZO  812   0.095   3.696   2.084
  271ZrO2    ZO  813   0.129   3.950   2.257
  272ZrO2    ZR  814   0.240   3.808   2.159
  272ZrO2    ZO  815   0.135   3.950   2.517
  272ZrO2    ZO  816   0.169   3.696   2.344
  273ZrO2    ZR  817   0.287   4.043   2.378
  273ZrO2    ZO  818   0.358   4.155   2.193
  273ZrO2    ZO  819   0.392   3.901   2.020
  274ZrO2    ZR  820   0.503   4.043   2.118
  274ZrO2    ZO  821   0.398   3.901   2.280
  274ZrO2    ZO  822   0.432   4.155   2.453
  275ZrO2    ZR  823   0.550   3.808   2.419
  275ZrO2    ZO  824   0.622   3.696   2.084
  275ZrO2    ZO  825   0.655   3.950   2.257
  276ZrO2    ZR  826   0.767   3.808   2.159
  276ZrO2    ZO  827   0.661   3.950   2.517
  276ZrO2    ZO  828   0.695   3.696   2.344
  277ZrO2    ZR  829   0.813   4.043   2.378
  277ZrO2    ZO  830   0.885   4.155   2.193
  277ZrO2    ZO  831   0.919   3.901   2.020
  278ZrO2    ZR  832   1.030   4.043   2.118
  278ZrO2    ZO  833   0.925   3.901   2.280
  278ZrO2    ZO  834   0.959   4.155   2.453
  279ZrO2    ZR  835   1.077   3.808   2.419
  279ZrO2    ZO  836   1.148   3.696   2.084
  279ZrO2    ZO  837   1.182   3.950   2.257
  280ZrO2    ZR  838   1.294   3.808   2.159
  280ZrO2    ZO  839   1.188   3.950   2.517
  280ZrO2    ZO  840   1.222   3.696   2.344
  281ZrO2    ZR  841   0.023   4.332   2.419
  281ZrO2    ZO  842   0.095   4.219   2.084
  281ZrO2    ZO  843   0.129   4.473   2.257
  282ZrO2    ZR  844   0.240   4.332   2.159
  282ZrO2    ZO  845   0.135   4.473   2.517
  282ZrO2    ZO  846   0.169   4.219   2.344
  283ZrO2    ZR  847   0.287   4.566   2.378
  283ZrO2    ZO  848   0.358   4.679   2.193
  283ZrO2    ZO  849   0.392   4.424   2.020
  284ZrO2    ZR  850   0.503   4.566   2.118
  284ZrO2    ZO  851   0.398   4.424   2.280
  284ZrO2    ZO  852   0.432   4.679   2.453
  285ZrO2    ZR  853   0.550   4.332   2.419
  285ZrO2    ZO  854   0.622   4.219   2.084
  285ZrO2    ZO  855   0.655   4.473   2.257
  286ZrO2    ZR  856   0.767   4.332   2.159
  286ZrO2    ZO  857   0.661   4.473   2.517
  286ZrO2    ZO  858   0.695   4.219   2.344
  287ZrO2    ZR  859   0.813   4.566   2.378
  287ZrO2    ZO  860   0.885   4.679   2.193
  287ZrO2    ZO  861   0.919   4.424   2.020
  288ZrO2    ZR  862   1.030   4.566   2.118
  288ZrO2    ZO  863   0.925   4.424   2.280
  288ZrO2    ZO  864   0.959   4.679   2.453
  289ZrO2    ZR  865   1.077   4.332   2.419
  289ZrO2    ZO  866   1.148   4.219   2.084
  289ZrO2    ZO  867   1.182   4.473   2.257
  290ZrO2    ZR  868   1.294   4.332   2.159
  290ZrO2    ZO  869   1.188   4.473   2.517
  290ZrO2    ZO  870   1.222   4.219   2.344
  291ZrO2    ZR  871   0.023   4.855   2.419
  291ZrO2    ZO  872   0.095   4.742   2.084
  291ZrO2    ZO  873   0.129   4.997   2.257
  292ZrO2    ZR  874   0.240   4.855   2.159
  292ZrO2    ZO  875   0.135   4.997   2.517
  292ZrO2    ZO  876   0.169   4.742   2.344
  293ZrO2    ZR  877   0.287   5.089   2.378
  293ZrO2    ZO  878   0.358   5.202   2.193
  293ZrO2    ZO  879   0.392   4.948   2.020
  294ZrO2    ZR  880   0.503   5.089   2.118
  294ZrO2    ZO  881   0.398   4.948   2.280
  294ZrO2    ZO  882   0.432   5.202   2.453
  295ZrO2    ZR  883   0.550   4.855   2.419
  295ZrO2    ZO  884   0.622   4.742   2.084
  295ZrO2    ZO  885   0.655   4.997   2.257
  296ZrO2    ZR  886   0.767   4.855   2.159
  296ZrO2    ZO  887   0.661   4.997   2.517
  296ZrO2    ZO  888   0.695   4.742   2.344
  297ZrO2    ZR  889   0.813   5.089   2.378
  297ZrO2    ZO  890   0.885   5.202   2.193
  297ZrO2    ZO  891   0.919   4.948   2.020
  298ZrO2    ZR  892   1.030   5.089   2.118
  298ZrO2    ZO  893   0.925   4.948   2.280
  298ZrO2    ZO  894   0.959   5.202   2.453
  299ZrO2    ZR  895   1.077   4.855   2.419
  299ZrO2    ZO  896   1.148   4.742   2.084
  299ZrO2    ZO  897   1.182   4.997   2.257
  300ZrO2    ZR  898   1.294   4.855   2.159
  300ZrO2    ZO  899   1.188   4.997   2.517
  300ZrO2    ZO  900   1.222   4.742   2.344
  301ZrO2    ZR  901   0.023   2.761   2.939
  301ZrO2    ZO  902   0.095   2.649   2.604
  301ZrO2    ZO  903   0.129   2.903   2.777
  302ZrO2    ZR  904   0.240   2.761   2.679
  302ZrO2    ZO  905   0.135   2.903   3.037
  302ZrO2    ZO  906   0.169   2.649   2.864
  303ZrO2    ZR  907   0.287   2.996   2.898
  303ZrO2    ZO  908   0.358   3.109   2.713
  303ZrO2    ZO  909   0.392   2.854   2.540
  304ZrO2    ZR  910   0.503   2.996   2.638
  304ZrO2    ZO  911   0.398   2.854   2.800
  304ZrO2    ZO  912   0.432   3.109   2.973
  305ZrO2    ZR  913   0.550   2.761   2.939
  305ZrO2    ZO  914   0.622   2.649   2.604
  305ZrO2    ZO  915   0.655   2.903   2.777
  306ZrO2    ZR  916   0.767   2.761   2.679
  306ZrO2    ZO  917   0.661   2.903   3.037
  306ZrO2    ZO  918   0.695   2.649   2.864
  307ZrO2    ZR  919   0.813   2.996   2.898
  307ZrO2    ZO  920   0.885   3.109   2.713
  307ZrO2    ZO  921   0.919   2.854   2.540
  308ZrO2    ZR  922   1.030   2.996   2.638
  308ZrO2    ZO  923   0.925   2.854   2.800
  308ZrO2    ZO  924   0.959   3.109   2.973
  309ZrO2    ZR  925   1.077   2.761   2.939
  309ZrO2    ZO  926   1.148   2.649   2.604
  309ZrO2    ZO  927   1.182   2.903   2.777
  310ZrO2    ZR  928   1.294   2.761   2.679
  310ZrO2    ZO  929   1.188   2.903   3.037
  310ZrO2    ZO  930   1.222   2.649   2.864
  311ZrO2    ZR  931   0.023   3.285   2.939
  311ZrO2    ZO  932   0.095   3.172   2.604
  311ZrO2    ZO  933   0.129   3.427   2.777
  312ZrO2    ZR  934   0.240   3.285   2.679
  312ZrO2    ZO  935   0.135   3.427   3.037
  312ZrO2    ZO  936   0.169   3.172   2.864
  313ZrO2    ZR  937   0.287   3.519   2.898
  313ZrO2    ZO  938   0.358   3.632   2.713
  313ZrO2    ZO  939   0.392   3.378   2.540
  314ZrO2    ZR  940   0.503   3.519   2.638
  314ZrO2    ZO  941   0.398   3.378   2.800
  314ZrO2    ZO  942   0.432   3.632   2.973
  315ZrO2    ZR  943   0.550   3.285   2.939
  315ZrO2    ZO  944   0.622   3.172   2.604
  315ZrO2    ZO  945   0.655   3.427   2.777
  316ZrO2    ZR  946   0.767   3.285   2.679
  316ZrO2    ZO  947   0.661   3.427   3.037
  316ZrO2    ZO  948   0.695   3.172   2.864
  317ZrO2    ZR  949   0.813   3.519   2.898
  317ZrO2    ZO  950   0.885   3.632   2.713
  317ZrO2    ZO  951   0.919   3.378   2.540
  318ZrO2    ZR  952   1.030   3.519   2.638
  318ZrO2    ZO  953   0.925   3.378   2.800
  318ZrO2    ZO  954   0.959   3.632   2.973
  319ZrO2    ZR  955   1.077   3.285   2.939
  319ZrO2    ZO  956   1.148   3.172   2.604
  319ZrO2    ZO  957   1.182   3.427   2.777
  320ZrO2    ZR  958   1.294   3.285   2.679
  320ZrO2    ZO  959   1.188   3.427   3.037
  320ZrO2    ZO  960   1.222   3.172   2.864
  321ZrO2    ZR  961   0.023   3.808   2.939
  321ZrO2    ZO  962   0.095   3.696   2.604
  321ZrO2    ZO  963   0.129   3.950   2.777
  322ZrO2    ZR  964   0.240   3.808   2.679
  322ZrO2    ZO  965   0.135   3.950   3.037
  322ZrO2    ZO  966   0.169   3.696   2.864
  323ZrO2    ZR  967   0.287   4.043   2.898
  323ZrO2    ZO  968   0.358   4.155   2.713
  323ZrO2    ZO  969   0.392   3.901   2.540
  324ZrO2    ZR  970   0.503   4.043   2.638
  324ZrO2    ZO  971   0.398   3.901   2.800
  324ZrO2    ZO  972   0.432   4.155   2.973
  325ZrO2    ZR  973   0.550   3.808   2.939
  325ZrO2    ZO  974   0.622   3.696   2.604
  325ZrO2    ZO  975   0.655   3.950   2.777
  326ZrO2    ZR  976   0.767   3.808   2.679
  326ZrO2    ZO  977   0.661   3.950   3.037
  326ZrO2    ZO  978   0.695   3.696   2.864
  327ZrO2    ZR  979   0.813   4.043   2.898
  327ZrO2    ZO  980   0.885   4.155   2.713
  327ZrO2    ZO  981   0.919   3.901   2.540
  328ZrO2    ZR  982   1.030   4.043   2.638
  328ZrO2    ZO  983   0.925   3.901   2.800
  328ZrO2    ZO  984   0.959   4.155   2.973
  329ZrO2    ZR  985   1.077   3.808   2.939
  329ZrO2    ZO  986   1.148   3.696   2.604
  329ZrO2    ZO  987   1.182   3.950   2.777
  330ZrO2    ZR  988   1.294   3.808   2.679
  330ZrO2    ZO  989   1.188   3.950   3.037
  330ZrO2    ZO  990   1.222   3.696   2.864
  331ZrO2    ZR  991   0.023   4.332   2.939
  331ZrO2    ZO  992   0.095   4.219   2.604
  331ZrO2    ZO  993   0.129   4.473   2.777
  332ZrO2    ZR  994   0.240   4.332   2.679
  332ZrO2    ZO  995   0.135   4.473   3.037
  332ZrO2    ZO  996   0.169   4.219   2.864
  333ZrO2    ZR  997   0.287   4.566   2.898
  333ZrO2    ZO  998   0.358   4.679   2.713
  333ZrO2    ZO  999   0.392   4.424   2.540
  334ZrO2    ZR 1000   0.503   4.566   2.638
  334ZrO2    ZO 1001   0.398   4.424   2.800
  334ZrO2    ZO 1002   0.432   4.679   2.973
  335ZrO2    ZR 1003   0.550   4.332   2.939
  335ZrO2    ZO 1004   0.622   4.219   2.604
  335ZrO2    ZO 1005   0.655   4.473   2.777
  336ZrO2    ZR 1006   0.767   4.332   2.679
  336ZrO2    ZO 1007   0.661   4.473   3.037
  336ZrO2    ZO 1008   0.695   4.219   2.864
  337ZrO2    ZR 1009   0.813   4.566   2.898
  337ZrO2    ZO 1010   0.885   4.679   2.713
  337ZrO2    ZO 1011   0.919   4.424   2.540
  338ZrO2    ZR 1012   1.030   4.566   2.638
  338ZrO2    ZO 1013   0.925   4.424   2.800
  338ZrO2    ZO 1014   0.959   4.679   2.973
  339ZrO2    ZR 1015   1.077   4.332   2.939
  339ZrO2    ZO 1016   1.148   4.219   2.604
  339ZrO2    ZO 1017   1.182   4.473   2.777
  340ZrO2    ZR 1018   1.294   4.332   2.679
  340ZrO2    ZO 1019   1.188   4.473   3.037
  340ZrO2    ZO 1020   1.222   4.219   2.864
  341ZrO2    ZR 1021   0.023   4.855   2.939
  341ZrO2    ZO 1022   0.095   4.742   2.604
  341ZrO2    ZO 1023   0.129   4.997   2.777
  342ZrO2    ZR 1024   0.240   4.855   2.679
  342ZrO2    ZO 1025   0.135   4.997   3.037
  342ZrO2    ZO 1026   0.169   4.742   2.864
  343ZrO2    ZR 1027   0.287   5.089   2.898
  343ZrO2    ZO 1028   0.358   5.202   2.713
  343ZrO2    ZO 1029   0.392   4.948   2.540
  344ZrO2    ZR 1030   0.503   5.089   2.638
  344ZrO2    ZO 1031   0.398   4.948   2.800
  344ZrO2    ZO 1032   0.432   5.202   2.973
  345ZrO2    ZR 1033   0.550   4.855   2.939
  345ZrO2    ZO 1034   0.622   4.742   2.604
  345ZrO2    ZO 1035   0.655   4.997   2.777
  346ZrO2    ZR 1036   0.767   4.855   2.679
  346ZrO2    ZO 1037   0.661   4.997   3.037
  346ZrO2    ZO 1038   0.695   4.742   2.864
  347ZrO2    ZR 1039   0.813   5.089   2.898
  347ZrO2    ZO 1040   0.885   5.202   2.713
  347ZrO2    ZO 1041   0.919   4.948   2.540
  348ZrO2    ZR 1042   1.030   5.089   2.638
  348ZrO2    ZO 1043   0.925   4.948   2.800
  348ZrO2    ZO 1044   0.959   5.202   2.973
  349ZrO2    ZR 1045   1.077   4.855   2.939
  349ZrO2    ZO 1046   1.148   4.742   2.604
  349ZrO2    ZO 1047   1.182   4.997   2.777
  350ZrO2    ZR 1048   1.294   4.855   2.679
  350ZrO2    ZO 1049   1.188   4.997   3.037
  350ZrO2    ZO 1050   1.222   4.742   2.864
  351ZrO2    ZR 1051   0.023   2.761   3.459
  351ZrO2    ZO 1052   0.095   2.649   3.124
  351ZrO2    ZO 1053   0.129   2.903   3.297
  352ZrO2    ZR 1054   0.240   2.761   3.199
  352ZrO2    ZO 1055   0.135   2.903   3.557
  352ZrO2    ZO 1056   0.169   2.649   3.384
  353ZrO2    ZR 1057   0.287   2.996   3.417
  353ZrO2    ZO 1058   0.358   3.109   3.232
  353ZrO2    ZO 1059   0.392   2.854   3.059
  354ZrO2    ZR 1060   0.503   2.996   3.158
  354ZrO2    ZO 1061   0.398   2.854   3.319
  354ZrO2    ZO 1062   0.432   3.109   3.492
  355ZrO2    ZR 1063   0.550   2.761   3.459
  355ZrO2    ZO 1064   0.622   2.649   3.124
  355ZrO2    ZO 1065   0.655   2.903   3.297
  356ZrO2    ZR 1066   0.767   2.761   3.199
  356ZrO2    ZO 1067   0.661   2.903   3.557
  356ZrO2    ZO 1068   0.695   2.649   3.384
  357ZrO2    ZR 1069   0.813   2.996   3.417
  357ZrO2    ZO 1070   0.885   3.109   3.232
  357ZrO2    ZO 1071   0.919   2.854   3.059
  358ZrO2    ZR 1072   1.030   2.996   3.158
  358ZrO2    ZO 1073   0.925   2.854   3.319
  358ZrO2    ZO 1074   0.959   3.109   3.492
  359ZrO2    ZR 1075   1.077   2.761   3.459
  359ZrO2    ZO 1076   1.148   2.649   3.124
  359ZrO2    ZO 1077   1.182   2.903   3.297
  360ZrO2    ZR 1078   1.294   2.761   3.199
  360ZrO2    ZO 1079   1.188   2.903   3.557
  360ZrO2    ZO 1080   1.222   2.649   3.384
  361ZrO2    ZR 1081   0.023   3.285   3.459
  361ZrO2    ZO 1082   0.095   3.172   3.124
  361ZrO2    ZO 1083   0.129   3.427   3.297
  362ZrO2    ZR 1084   0.240   3.285   3.199
  362ZrO2    ZO 1085   0.135   3.427   3.557
  362ZrO2    ZO 1086   0.169   3.172   3.384
  363ZrO2    ZR 1087   0.287   3.519   3.417
  363ZrO2    ZO 1088   0.358   3.632   3.232
  363ZrO2    ZO 1089   0.392   3.378   3.059
  364ZrO2    ZR 1090   0.503   3.519   3.158
  364ZrO2    ZO 1091   0.398   3.378   3.319
  364ZrO2    ZO 1092   0.432   3.632   3.492
  365ZrO2    ZR 1093   0.550   3.285   3.459
  365ZrO2    ZO 1094   0.622   3.172   3.124
  365ZrO2    ZO 1095   0.655   3.427   3.297
  366ZrO2    ZR 1096   0.767   3.285   3.199
  366ZrO2    ZO 1097   0.661   3.427   3.557
  366ZrO2    ZO 1098   0.695   3.172   3.384
  367ZrO2    ZR 1099   0.813   3.519   3.417
  367ZrO2    ZO 1100   0.885   3.632   3.232
  367ZrO2    ZO 1101   0.919   3.378   3.059
  368ZrO2    ZR 1102   1.030   3.519   3.158
  368ZrO2    ZO 1103   0.925   3.378   3.319
  368ZrO2    ZO 1104   0.959   3.632   3.492
  369ZrO2    ZR 1105   1.077   3.285   3.459
  369ZrO2    ZO 1106   1.148   3.172   3.124
  369ZrO2    ZO 1107   1.182   3.427   3.297
  370ZrO2    ZR 1108   1.294   3.285   3.199
  370ZrO2    ZO 1109   1.188   3.427   3.557
  370ZrO2    ZO 1110   1.222   3.172   3.384
  371ZrO2    ZR 1111   0.023   3.808   3.459
  371ZrO2    ZO 1112   0.095   3.696   3.124
  371ZrO2    ZO 1113   0.129   3.950   3.297
  372ZrO2    ZR 1114   0.240   3.808   3.199
  372ZrO2    ZO 1115   0.135   3.950   3.557
  372ZrO2    ZO 1116   0.169   3.696   3.384
  373ZrO2    ZR 1117   0.287   4.043   3.417
  373ZrO2    ZO 1118   0.358   4.155   3.232
  373ZrO2    ZO 1119   0.392   3.901   3.059
  374ZrO2    ZR 1120   0.503   4.043   3.158
  374ZrO2    ZO 1121   0.398   3.901   3.319
  374ZrO2    ZO 1122   0.432   4.155   3.492
  375ZrO2    ZR 1123   0.550   3.808   3.459
  375ZrO2    ZO 1124   0.622   3.696   3.124
  375ZrO2    ZO 1125   0.655   3.950   3.297
  376ZrO2    ZR 1126   0.767   3.808   3.199
  376ZrO2    ZO 1127   0.661   3.950   3.557
  376ZrO2    ZO 1128   0.695   3.696   3.384
  377ZrO2    ZR 1129   0.813   4.043   3.417
  377ZrO2    ZO 1130   0.885   4.155   3.232
  377ZrO2    ZO 1131   0.919   3.901   3.059
  378ZrO2    ZR 1132   1.030   4.043   3.158
  378ZrO2    ZO 1133   0.925   3.901   3.319
  378ZrO2    ZO 1134   0.959   4.155   3.492
  379ZrO2    ZR 1135   1.077   3.808   3.459
  379ZrO2    ZO 1136   1.148   3.696   3.124
  379ZrO2    ZO 1137   1.182   3.950   3.297
  380ZrO2    ZR 1138   1.294   3.808   3.199
  380ZrO2    ZO 1139   1.188   3.950   3.557
  380ZrO2    ZO 1140   1.222   3.696   3.384
  381ZrO2    ZR 1141   0.023   4.332   3.459
  381ZrO2    ZO 1142   0.095   4.219   3.124
  381ZrO2    ZO 1143   0.129   4.473   3.297
  382ZrO2    ZR 1144   0.240   4.332   3.199
  382ZrO2    ZO 1145   0.135   4.473   3.557
  382ZrO2    ZO 1146   0.169   4.219   3.384
  383ZrO2    ZR 1147   0.287   4.566   3.417
  383ZrO2    ZO 1148   0.358   4.679   3.232
  383ZrO2    ZO 1149   0.392   4.424   3.059
  384ZrO2    ZR 1150   0.503   4.566   3.158
  384ZrO2    ZO 1151   0.398   4.424   3.319
  384ZrO2    ZO 1152   0.432   4.679   3.492
  385ZrO2    ZR 1153   0.550   4.332   3.459
  385ZrO2    ZO 1154   0.622   4.219   3.124
  385ZrO2    ZO 1155   0.655   4.473   3.297
  386ZrO2    ZR 1156   0.767   4.332   3.199
  386ZrO2    ZO 1157   0.661   4.473   3.557
  386ZrO2    ZO 1158   0.695   4.219   3.384
  387ZrO2    ZR 1159   0.813   4.566   3.417
  387ZrO2    ZO 1160   0.885   4.679   3.232
  387ZrO2    ZO 1161   0.919   4.424   3.059
  388ZrO2    ZR 1162   1.030   4.566   3.158
  388ZrO2    ZO 1163   0.925   4.424   3.319
  388ZrO2    ZO 1164   0.959   4.679   3.492
  389ZrO2    ZR 1165   1.077   4.332   3.459
  389ZrO2    ZO 1166   1.148   4.219   3.124
  389ZrO2    ZO 1167   1.182   4.473   3.297
  390ZrO2    ZR 1168   1.294   4.332   3.199
  390ZrO2    ZO 1169   1.188   4.473   3.557
  390ZrO2    ZO 1170   1.222   4.219   3.384
  391ZrO2    ZR 1171   0.023   4.855   3.459
  391ZrO2    ZO 1172   0.095   4.742   3.124
  391ZrO2    ZO 1173   0.129   4.997   3.297
  392ZrO2    ZR 1174   0.240   4.855   3.199
  392ZrO2    ZO 1175   0.135   4.997   3.557
  392ZrO2    ZO 1176   0.169   4.742   3.384
  393ZrO2    ZR 1177   0.287   5.089   3.417
  393ZrO2    ZO 1178   0.358   5.202   3.232
  393ZrO2    ZO 1179   0.392   4.948   3.059
  394ZrO2    ZR 1180   0.503   5.089   3.158
  394ZrO2    ZO 1181   0.398   4.948   3.319
  394ZrO2    ZO 1182   0.432   5.202   3.492
  395ZrO2    ZR 1183   0.550   4.855   3.459
  395ZrO2    ZO 1184   0.622   4.742   3.124
  395ZrO2    ZO 1185   0.655   4.997   3.297
  396ZrO2    ZR 1186   0.767   4.855   3.199
  396ZrO2    ZO 1187   0.661   4.997   3.557
  396ZrO2    ZO 1188   0.695   4.742   3.384
  397ZrO2    ZR 1189   0.813   5.089   3.417
  397ZrO2    ZO 1190   0.885   5.202   3.232
  397ZrO2    ZO 1191   0.919   4.948   3.059
  398ZrO2    ZR 1192   1.030   5.089   3.158
  398ZrO2    ZO 1193   0.925   4.948   3.319
  398ZrO2    ZO 1194   0.959   5.202   3.492
  399ZrO2    ZR 1195   1.077   4.855   3.459
  399ZrO2    ZO 1196   1.148   4.742   3.124
  399ZrO2    ZO 1197   1.182   4.997   3.297
  400ZrO2    ZR 1198   1.294   4.855   3.199
  400ZrO2    ZO 1199   1.188   4.997   3.557
  400ZrO2    ZO 1200   1.222   4.742   3.384
  401ZrO2    ZR 1201   1.340   0.379   1.858
  401ZrO2    ZO 1202   1.412   0.491   1.673
  401ZrO2    ZO 1203   1.446   0.237   1.500
  402ZrO2    ZR 1204   1.557   0.379   1.598
  402ZrO2    ZO 1205   1.452   0.237   1.760
  402ZrO2    ZO 1206   1.485   0.491   1.933
  403ZrO2    ZR 1207   1.604   0.145   1.900
  403ZrO2    ZO 1208   1.675   0.032   1.565
  403ZrO2    ZO 1209   1.709   0.286   1.738
  404ZrO2    ZR 1210   1.821   0.145   1.640
  404ZrO2    ZO 1211   1.715   0.286   1.997
  404ZrO2    ZO 1212   1.749   0.032   1.824
  405ZrO2    ZR 1213   1.867   0.379   1.858
  405ZrO2    ZO 1214   1.939   0.491   1.673
  405ZrO2    ZO 1215   1.972   0.237   1.500
  406ZrO2    ZR 1216   2.084   0.379   1.598
  406ZrO2    ZO 1217   1.979   0.237   1.760
  406ZrO2    ZO 1218   2.012   0.491   1.933
  407ZrO2    ZR 1219   2.131   0.145   1.900
  407ZrO2    ZO 1220   2.202   0.032   1.565
  407ZrO2    ZO 1221   2.236   0.286   1.738
  408ZrO2    ZR 1222   2.347   0.145   1.640
  408ZrO2    ZO 1223   2.242   0.286   1.997
  408ZrO2    ZO 1224   2.276   0.032   1.824
  409ZrO2    ZR 1225   2.394   0.379   1.858
  409ZrO2    ZO 1226   2.466   0.491   1.673
  409ZrO2    ZO 1227   2.499   0.237   1.500
  410ZrO2    ZR 1228   2.611   0.379   1.598
  410ZrO2    ZO 1229   2.505   0.237   1.760
  410ZrO2    ZO 1230   2.539   0.491   1.933
  411ZrO2    ZR 1231   1.340   0.902   1.858
  411ZrO2    ZO 1232   1.412   1.015   1.673
  411ZrO2    ZO 1233   1.446   0.761   1.500
  412ZrO2    ZR 1234   1.557   0.902   1.598
  412ZrO2    ZO 1235   1.452   0.761   1.760
  412ZrO2    ZO 1236   1.485   1.015   1.933
  413ZrO2    ZR 1237   1.604   0.668   1.900
  413ZrO2    ZO 1238   1.675   0.555   1.565
  413ZrO2    ZO 1239   1.709   0.810   1.738
  414ZrO2    ZR 1240   1.821   0.668   1.640
  414ZrO2    ZO 1241   1.715   0.810   1.997
  414ZrO2    ZO 1242   1.749   0.555   1.824
  415ZrO2    ZR 1243   1.867   0.902   1.858
  415ZrO2    ZO 1244   1.939   1.015   1.673
  415ZrO2    ZO 1245   1.972   0.761   1.500
  416ZrO2    ZR 1246   2.084   0.902   1.598
  416ZrO2    ZO 1247   1.979   0.761   1.760
  416ZrO2    ZO 1248   2.012   1.015   1.933
  417ZrO2    ZR 1249   2.131   0.668   1.900
  417ZrO2    ZO 1250   2.202   0.555   1.565
  417ZrO2    ZO 1251   2.236   0.810   1.738
  418ZrO2    ZR 1252   2.347   0.668   1.640
  418ZrO2    ZO 1253   2.242   0.810   1.997
  418ZrO2    ZO 1254   2.276   0.555   1.824
  419ZrO2    ZR 1255   2.394   0.902   1.858
  419ZrO2    ZO 1256   2.466   1.015   1.673
  419ZrO2    ZO 1257   2.499   0.761   1.500
  420ZrO2    ZR 1258   2.611   0.902   1.598
  420ZrO2    ZO 1259   2.505   0.761   1.760
  420ZrO2    ZO 1260   2.539   1.015   1.933
  421ZrO2    ZR 1261   1.340   1.426   1.858
  421ZrO2    ZO 1262   1.412   1.538   1.673
  421ZrO2    ZO 1263   1.446   1.284   1.500
  422ZrO2    ZR 1264   1.557   1.426   1.598
  422ZrO2    ZO 1265   1.452   1.284   1.760
  422ZrO2    ZO 1266   1.485   1.538   1.933
  423ZrO2    ZR 1267   1.604   1.191   1.900
  423ZrO2    ZO 1268   1.675   1.079   1.565
  423ZrO2    ZO 1269   1.709   1.333   1.738
  424ZrO2    ZR 1270   1.821   1.191   1.640
  424ZrO2    ZO 1271   1.715   1.333   1.997
  424ZrO2    ZO 1272   1.749   1.079   1.824
  425ZrO2    ZR 1273   1.867   1.426   1.858
  425ZrO2    ZO 1274   1.939   1.538   1.673
  425ZrO2    ZO 1275   1.972   1.284   1.500
  426ZrO2    ZR 1276   2.084   1.426   1.598
  426ZrO2    ZO 1277   1.979   1.284   1.760
  426ZrO2    ZO 1278   2.012   1.538   1.933
  427ZrO2    ZR 1279   2.131   1.191   1.900
  427ZrO2    ZO 1280   2.202   1.079   1.565
  427ZrO2    ZO 1281   2.236   1.333   1.738
  428ZrO2    ZR 1282   2.347   1.191   1.640
  428ZrO2    ZO 1283   2.242   1.333   1.997
  428ZrO2    ZO 1284   2.276   1.079   1.824
  429ZrO2    ZR 1285   2.394   1.426   1.858
  429ZrO2    ZO 1286   2.466   1.538   1.673
  429ZrO2    ZO 1287   2.499   1.284   1.500
  430ZrO2    ZR 1288   2.611   1.426   1.598
  430ZrO2    ZO 1289   2.505   1.284   1.760
  430ZrO2    ZO 1290   2.539   1.538   1.933
  431ZrO2    ZR 1291   1.340   1.949   1.858
  431ZrO2    ZO 1292   1.412   2.062   1.673
  431ZrO2    ZO 1293   1.446   1.807   1.500
  432ZrO2    ZR 1294   1.557   1.949   1.598
  432ZrO2    ZO 1295   1.452   1.807   1.760
  432ZrO2    ZO 1296   1.485   2.062   1.933
  433ZrO2    ZR 1297   1.604   1.715   1.900
  433ZrO2    ZO 1298   1.675   1.602   1.565
  433ZrO2    ZO 1299   1.709   1.857   1.738
  434ZrO2    ZR 1300   1.821   1.715   1.640
  434ZrO2    ZO 1301   1.715   1.857   1.997
  434ZrO2    ZO 1302   1.749   1.602   1.824
  435ZrO2    ZR 1303   1.867   1.949   1.858
  435ZrO2    ZO 1304   1.939   2.062   1.673
  435ZrO2    ZO 1305   1.972   1.807   1.500
  436ZrO2    ZR 1306   2.084   1.949   1.598
  436ZrO2    ZO 1307   1.979   1.807   1.760
  436ZrO2    ZO 1308   2.012   2.062   1.933
  437ZrO2    ZR 1309   2.131   1.715   1.900
  437ZrO2    ZO 1310   2.202   1.602   1.565
  437ZrO2    ZO 1311   2.236   1.857   1.738
  438ZrO2    ZR 1312   2.347   1.715   1.640
  438ZrO2    ZO 1313   2.242   1.857   1.997
  438ZrO2    ZO 1314   2.276   1.602   1.824
  439ZrO2    ZR 1315   2.394   1.949   1.858
  439ZrO2    ZO 1316   2.466   2.062   1.673
  439ZrO2    ZO 1317   2.499   1.807   1.500
  440ZrO2    ZR 1318   2.611   1.949   1.598
  440ZrO2    ZO 1319   2.505   1.807   1.760
  440ZrO2    ZO 1320   2.539   2.062   1.933
  441ZrO2    ZR 1321   1.340   2.473   1.858
  441ZrO2    ZO 1322   1.412   2.585   1.673
  441ZrO2    ZO 1323   1.446   2.331   1.500
  442ZrO2    ZR 1324   1.557   2.473   1.598
  442ZrO2    ZO 1325   1.452   2.331   1.760
  442ZrO2    ZO 1326   1.485   2.585   1.933
  443ZrO2    ZR 1327   1.604   2.238   1.900
  443ZrO2    ZO 1328   1.675   2.125   1.565
  443ZrO2    ZO 1329   1.709   2.380   1.738
  444ZrO2    ZR 1330   1.821   2.238   1.640
  444ZrO2    ZO 1331   1.715   2.380   1.997
  444ZrO2    ZO 1332   1.749   2.125   1.824
  445ZrO2    ZR 1333   1.867   2.473   1.858
  445ZrO2    ZO 1334   1.939   2.585   1.673
  445ZrO2    ZO 1335   1.972   2.331   1.500
  446ZrO2    ZR 1336   2.084   2.473   1.598
  446ZrO2    ZO 1337   1.979   2.331   1.760
  446ZrO2    ZO 1338   2.012   2.585   1.933
  447ZrO2    ZR 1339   2.131   2.238   1.900
  447ZrO2    ZO 1340   2.202   2.125   1.565
  447ZrO2    ZO 1341   2.236   2.380   1.738
  448ZrO2    ZR 1342   2.347   2.238   1.640
  448ZrO2    ZO 1343   2.242   2.380   1.997
  448ZrO2    ZO 1344   2.276   2.125   1.824
  449ZrO2    ZR 1345   2.394   2.473   1.858
  449ZrO2    ZO 1346   2.466   2.585   1.673
  449ZrO2    ZO 1347   2.499   2.331   1.500
  450ZrO2    ZR 1348   2.611   2.473   1.598
  450ZrO2    ZO 1349   2.505   2.331   1.760
  450ZrO2    ZO 1350   2.539   2.585   1.933
  451ZrO2    ZR 1351   1.340   0.379   2.378
  451ZrO2    ZO 1352   1.412   0.491   2.193
  451ZrO2    ZO 1353   1.446   0.237   2.020
  452ZrO2    ZR 1354   1.557   0.379   2.118
  452ZrO2    ZO 1355   1.452   0.237   2.280
  452ZrO2    ZO 1356   1.485   0.491   2.453
  453ZrO2    ZR 1357   1.604   0.145   2.419
  453ZrO2    ZO 1358   1.675   0.032   2.084
  453ZrO2    ZO 1359   1.709   0.286   2.257
  454ZrO2    ZR 1360   1.821   0.145   2.159
  454ZrO2    ZO 1361   1.715   0.286   2.517
  454ZrO2    ZO 1362   1.749   0.032   2.344
  455ZrO2    ZR 1363   1.867   0.379   2.378
  455ZrO2    ZO 1364   1.939   0.491   2.193
  455ZrO2    ZO 1365   1.972   0.237   2.020
  456ZrO2    ZR 1366   2.084   0.379   2.118
  456ZrO2    ZO 1367   1.979   0.237   2.280
  456ZrO2    ZO 1368   2.012   0.491   2.453
  457ZrO2    ZR 1369   2.131   0.145   2.419
  457ZrO2    ZO 1370   2.202   0.032   2.084
  457ZrO2    ZO 1371   2.236   0.286   2.257
  458ZrO2    ZR 1372   2.347   0.145   2.159
  458ZrO2    ZO 1373   2.242   0.286   2.517
  458ZrO2    ZO 1374   2.276   0.032   2.344
  459ZrO2    ZR 1375   2.394   0.379   2.378
  459ZrO2    ZO 1376   2.466   0.491   2.193
  459ZrO2    ZO 1377   2.499   0.237   2.020
  460ZrO2    ZR 1378   2.611   0.379   2.118
  460ZrO2    ZO 1379   2.505   0.237   2.280
  460ZrO2    ZO 1380   2.539   0.491   2.453
  461ZrO2    ZR 1381   1.340   0.902   2.378
  461ZrO2    ZO 1382   1.412   1.015   2.193
  461ZrO2    ZO 1383   1.446   0.761   2.020
  462ZrO2    ZR 1384   1.557   0.902   2.118
  462ZrO2    ZO 1385   1.452   0.761   2.280
  462ZrO2    ZO 1386   1.485   1.015   2.453
  463ZrO2    ZR 1387   1.604   0.668   2.419
  463ZrO2    ZO 1388   1.675   0.555   2.084
  463ZrO2    ZO 1389   1.709   0.810   2.257
  464ZrO2    ZR 1390   1.821   0.668   2.159
  464ZrO2    ZO 1391   1.715   0.810   2.517
  464ZrO2    ZO 1392   1.749   0.555   2.344
  465ZrO2    ZR 1393   1.867   0.902   2.378
  465ZrO2    ZO 1394   1.939   1.015   2.193
  465ZrO2    ZO 1395   1.972   0.761   2.020
  466ZrO2    ZR 1396   2.084   0.902   2.118
  466ZrO2    ZO 1397   1.979   0.761   2.280
  466ZrO2    ZO 1398   2.012   1.015   2.453
  467ZrO2    ZR 1399   2.131   0.668   2.419
  467ZrO2    ZO 1400   2.202   0.555   2.084
  467ZrO2    ZO 1401   2.236   0.810   2.257
  468ZrO2    ZR 1402   2.347   0.668   2.159
  468ZrO2    ZO 1403   2.242   0.810   2.517
  468ZrO2    ZO 1404   2.276   0.555   2.344
  469ZrO2    ZR 1405   2.394   0.902   2.378
  469ZrO2    ZO 1406   2.466   1.015   2.193
  469ZrO2    ZO 1407   2.499   0.761   2.020
  470ZrO2    ZR 1408   2.611   0.902   2.118
  470ZrO2    ZO 1409   2.505   0.761   2.280
  470ZrO2    ZO 1410   2.539   1.015   2.453
  471ZrO2    ZR 1411   1.340   1.426   2.378
  471ZrO2    ZO 1412   1.412   1.538   2.193
  471ZrO2    ZO 1413   1.446   1.284   2.020
  472ZrO2    ZR 1414   1.557   1.426   2.118
  472ZrO2    ZO 1415   1.452   1.284   2.280
  472ZrO2    ZO 1416   1.485   1.538   2.453
  473ZrO2    ZR 1417   1.604   1.191   2.419
  473ZrO2    ZO 1418   1.675   1.079   2.084
  473ZrO2    ZO 1419   1.709   1.333   2.257
  474ZrO2    ZR 1420   1.821   1.191   2.159
  474ZrO2    ZO 1421   1.715   1.333   2.517
  474ZrO2    ZO 1422   1.749   1.079   2.344
  475ZrO2    ZR 1423   1.867   1.426   2.378
  475ZrO2    ZO 1424   1.939   1.538   2.193
  475ZrO2    ZO 1425   1.972   1.284   2.020
  476ZrO2    ZR 1426   2.084   1.426   2.118
  476ZrO2    ZO 1427   1.979   1.284   2.280
  476ZrO2    ZO 1428   2.012   1.538   2.453
  477ZrO2    ZR 1429   2.131   1.191   2.419
  477ZrO2    ZO 1430   2.202   1.079   2.084
  477ZrO2    ZO 1431   2.236   1.333   2.257
  478ZrO2    ZR 1432   2.347   1.191   2.159
  478ZrO2    ZO 1433   2.242   1.333   2.517
  478ZrO2    ZO 1434   2.276   1.079   2.344
  479ZrO2    ZR 1435   2.394   1.426   2.378
  479ZrO2    ZO 1436   2.466   1.538   2.193
  479ZrO2    ZO 1437   2.499   1.284   2.020
  480ZrO2    ZR 1438   2.611   1.426   2.118
  480ZrO2    ZO 1439   2.505   1.284   2.280
  480ZrO2    ZO 1440   2.539   1.538   2.453
  481ZrO2    ZR 1441   1.340   1.949   2.378
  481ZrO2    ZO 1442   1.412   2.062   2.193
  481ZrO2    ZO 1443   1.446   1.807   2.020
  482ZrO2    ZR 1444   1.557   1.949   2.118
  482ZrO2    ZO 1445   1.452   1.807   2.280
  482ZrO2    ZO 1446   1.485   2.062   2.453
  483ZrO2    ZR 1447   1.604   1.715   2.419
  483ZrO2    ZO 1448   1.675   1.602   2.084
  483ZrO2    ZO 1449   1.709   1.857   2.257
  484ZrO2    ZR 1450   1.821   1.715   2.159
  484ZrO2    ZO 1451   1.715   1.857   2.517
  484ZrO2    ZO 1452   1.749   1.602   2.344
  485ZrO2    ZR 1453   1.867   1.949   2.378
  485ZrO2    ZO 1454   1.939   2.062   2.193
  485ZrO2    ZO 1455   1.972   1.807   2.020
  486ZrO2    ZR 1456   2.084   1.949   2.118
  486ZrO2    ZO 1457   1.979   1.807   2.280
  486ZrO2    ZO 1458   2.012   2.062   2.453
  487ZrO2    ZR 1459   2.131   1.715   2.419
  487ZrO2    ZO 1460   2.202   1.602   2.084
  487ZrO2    ZO 1461   2.236   1.857   2.257
  488ZrO2    ZR 1462   2.347   1.715   2.159
  488ZrO2    ZO 1463   2.242   1.857   2.517
  488ZrO2    ZO 1464   2.276   1.602   2.344
  489ZrO2    ZR 1465   2.394   1.949   2.378
  489ZrO2    ZO 1466   2.466   2.062   2.193
  489ZrO2    ZO 1467   2.499   1.807   2.020
  490ZrO2    ZR 1468   2.611   1.949   2.118
  490ZrO2    ZO 1469   2.505   1.807   2.280
  490ZrO2    ZO 1470   2.539   2.062   2.453
  491ZrO2    ZR 1471   1.340   2.473   2.378
  491ZrO2    ZO 1472   1.412   2.585   2.193
  491ZrO2    ZO 1473   1.446   2.331   2.020
  492ZrO2    ZR 1474   1.557   2.473   2.118
  492ZrO2    ZO 1475   1.452   2.331   2.280
  492ZrO2    ZO 1476   1.485   2.585   2.453
  493ZrO2    ZR 1477   1.604   2.238   2.419
  493ZrO2    ZO 1478   1.675   2.125   2.084
  493ZrO2    ZO 1479   1.709   2.380   2.257
  494ZrO2    ZR 1480   1.821   2.238   2.159
  494ZrO2    ZO 1481   1.715   2.380   2.517
  494ZrO2    ZO 1482   1.749   2.125   2.344
  495ZrO2    ZR 1483   1.867   2.473   2.378
  495ZrO2    ZO 1484   1.939   2.585   2.193
  495ZrO2    ZO 1485   1.972   2.331   2.020
  496ZrO2    ZR 1486   2.084   2.473   2.118
  496ZrO2    ZO 1487   1.979   2.331   2.280
  496ZrO2    ZO 1488   2.012   2.585   2.453
  497ZrO2    ZR 1489   2.131   2.238   2.419
  497ZrO2    ZO 1490   2.202   2.125   2.084
  497ZrO2    ZO 1491   2.236   2.380   2.257
  498ZrO2    ZR 1492   2.347   2.238   2.159
  498ZrO2    ZO 1493   2.242   2.380   2.517
  498ZrO2    ZO 1494   2.276   2.125   2.344
  499ZrO2    ZR 1495   2.394   2.473   2.378
  499ZrO2    ZO 1496   2.466   2.585   2.193
  499ZrO2    ZO 1497   2.499   2.331   2.020
  500ZrO2    ZR 1498   2.611   2.473   2.118
  500ZrO2    ZO 1499   2.505   2.331   2.280
  500ZrO2    ZO 1500   2.539   2.585   2.453
  501ZrO2    ZR 1501   1.340   0.379   2.898
  501ZrO2    ZO 1502   1.412   0.491   2.713
  501ZrO2    ZO 1503   1.446   0.237   2.540
  502ZrO2    ZR 1504   1.557   0.379   2.638
  502ZrO2    ZO 1505   1.452   0.237   2.800
  502ZrO2    ZO 1506   1.485   0.491   2.973
  503ZrO2    ZR 1507   1.604   0.145   2.939
  503ZrO2    ZO 1508   1.675   0.032   2.604
  503ZrO2    ZO 1509   1.709   0.286   2.777
  504ZrO2    ZR 1510   1.821   0.145   2.679
  504ZrO2    ZO 1511   1.715   0.286   3.037
  504ZrO2    ZO 1512   1.749   0.032   2.864
  505ZrO2    ZR 1513   1.867   0.379   2.898
  505ZrO2    ZO 1514   1.939   0.491   2.713
  505ZrO2    ZO 1515   1.972   0.237   2.540
  506ZrO2    ZR 1516   2.084   0.379   2.638
  506ZrO2    ZO 1517   1.979   0.237   2.800
  506ZrO2    ZO 1518   2.012   0.491   2.973
  507ZrO2    ZR 1519   2.131   0.145   2.939
  507ZrO2    ZO 1520   2.202   0.032   2.604
  507ZrO2    ZO 1521   2.236   0.286   2.777
  508ZrO2    ZR 1522   2.347   0.145   2.679
  508ZrO2    ZO 1523   2.242   0.286   3.037
  508ZrO2    ZO 1524   2.276   0.032   2.864
  509ZrO2    ZR 1525   2.394   0.379   2.898
  509ZrO2    ZO 1526   2.466   0.491   2.713
  509ZrO2    ZO 1527   2.499   0.237   2.540
  510ZrO2    ZR 1528   2.611   0.379   2.638
  510ZrO2    ZO 1529   2.505   0.237   2.800
  510ZrO2    ZO 1530   2.539   0.491   2.973
  511ZrO2    ZR 1531   1.340   0.902   2.898
  511ZrO2    ZO 1532   1.412   1.015   2.713
  511ZrO2    ZO 1533   1.446   0.761   2.540
  512ZrO2    ZR 1534   1.557   0.902   2.638
  512ZrO2    ZO 1535   1.452   0.761   2.800
  512ZrO2    ZO 1536   1.485   1.015   2.973
  513ZrO2    ZR 1537   1.604   0.668   2.939
  513ZrO2    ZO 1538   1.675   0.555   2.604
  513ZrO2    ZO 1539   1.709   0.810   2.777
  514ZrO2    ZR 1540   1.821   0.668   2.679
  514ZrO2    ZO 1541   1.715   0.810   3.037
  514ZrO2    ZO 1542   1.749   0.555   2.864
  515ZrO2    ZR 1543   1.867   0.902   2.898
  515ZrO2    ZO 1544   1.939   1.015   2.713
  515ZrO2    ZO 1545   1.972   0.761   2.540
  516ZrO2    ZR 1546   2.084   0.902   2.638
  516ZrO2    ZO 1547   1.979   0.761   2.800
  516ZrO2    ZO 1548   2.012   1.015   2.973
  517ZrO2    ZR 1549   2.131   0.668   2.939
  517ZrO2    ZO 1550   2.202   0.555   2.604
  517ZrO2    ZO 1551   2.236   0.810   2.777
  518ZrO2    ZR 1552   2.347   0.668   2.679
  518ZrO2    ZO 1553   2.242   0.810   3.037
  518ZrO2    ZO 1554   2.276   0.555   2.864
  519ZrO2    ZR 1555   2.394   0.902   2.898
  519ZrO2    ZO 1556   2.466   1.015   2.713
  519ZrO2    ZO 1557   2.499   0.761   2.540
  520ZrO2    ZR 1558   2.611   0.902   2.638
  520ZrO2    ZO 1559   2.505   0.761   2.800
  520ZrO2    ZO 1560   2.539   1.015   2.973
  521ZrO2    ZR 1561   1.340   1.426   2.898
  521ZrO2    ZO 1562   1.412   1.538   2.713
  521ZrO2    ZO 1563   1.446   1.284   2.540
  522ZrO2    ZR 1564   1.557   1.426   2.638
  522ZrO2    ZO 1565   1.452   1.284   2.800
  522ZrO2    ZO 1566   1.485   1.538   2.973
  523ZrO2    ZR 1567   1.604   1.191   2.939
  523ZrO2    ZO 1568   1.675   1.079   2.604
  523ZrO2    ZO 1569   1.709   1.333   2.777
  524ZrO2    ZR 1570   1.821   1.191   2.679
  524ZrO2    ZO 1571   1.715   1.333   3.037
  524ZrO2    ZO 1572   1.749   1.079   2.864
  525ZrO2    ZR 1573   1.867   1.426   2.898
  525ZrO2    ZO 1574   1.939   1.538   2.713
  525ZrO2    ZO 1575   1.972   1.284   2.540
  526ZrO2    ZR 1576   2.084   1.426   2.638
  526ZrO2    ZO 1577   1.979   1.284   2.800
  526ZrO2    ZO 1578   2.012   1.538   2.973
  527ZrO2    ZR 1579   2.131   1.191   2.939
  527ZrO2    ZO 1580   2.202   1.079   2.604
  527ZrO2    ZO 1581   2.236   1.333   2.777
  528ZrO2    ZR 1582   2.347   1.191   2.679
  528ZrO2    ZO 1583   2.242   1.333   3.037
  528ZrO2    ZO 1584   2.276   1.079   2.864
  529ZrO2    ZR 1585   2.394   1.426   2.898
  529ZrO2    ZO 1586   2.466   1.538   2.713
  529ZrO2    ZO 1587   2.499   1.284   2.540
  530ZrO2    ZR 1588   2.611   1.426   2.638
  530ZrO2    ZO 1589   2.505   1.284   2.800
  530ZrO2    ZO 1590   2.539   1.538   2.973
  531ZrO2    ZR 1591   1.340   1.949   2.898
  531ZrO2    ZO 1592   1.412   2.062   2.713
  531ZrO2    ZO 1593   1.446   1.807   2.540
  532ZrO2    ZR 1594   1.557   1.949   2.638
  532ZrO2    ZO 1595   1.452   1.807   2.800
  532ZrO2    ZO 1596   1.485   2.062   2.973
  533ZrO2    ZR 1597   1.604   1.715   2.939
  533ZrO2    ZO 1598   1.675   1.602   2.604
  533ZrO2    ZO 1599   1.709   1.857   2.777
  534ZrO2    ZR 1600   1.821   1.715   2.679
  534ZrO2    ZO 1601   1.715   1.857   3.037
  534ZrO2    ZO 1602   1.749   1.602   2.864
  535ZrO2    ZR 1603   1.867   1.949   2.898
  535ZrO2    ZO 1604   1.939   2.062   2.713
  535ZrO2    ZO 1605   1.972   1.807   2.540
  536ZrO2    ZR 1606   2.084   1.949   2.638
  536ZrO2    ZO 1607   1.979   1.807   2.800
  536ZrO2    ZO 1608   2.012   2.062   2.973
  537ZrO2    ZR 1609   2.131   1.715   2.939
  537ZrO2    ZO 1610   2.202   1.602   2.604
  537ZrO2    ZO 1611   2.236   1.857   2.777
  538ZrO2    ZR 1612   2.347   1.715   2.679
  538ZrO2    ZO 1613   2.242   1.857   3.037
  538ZrO2    ZO 1614   2.276   1.602   2.864
  539ZrO2    ZR 1615   2.394   1.949   2.898
  539ZrO2    ZO 1616   2.466   2.062   2.713
  539ZrO2    ZO 1617   2.499   1.807   2.540
  540ZrO2    ZR 1618   2.611   1.949   2.638
  540ZrO2    ZO 1619   2.505   1.807   2.800
  540ZrO2    ZO 1620   2.539   2.062   2.973
  541ZrO2    ZR 1621   1.340   2.473   2.898
  541ZrO2    ZO 1622   1.412   2.585   2.713
  541ZrO2    ZO 1623   1.446   2.331   2.540
  542ZrO2    ZR 1624   1.557   2.473   2.638
  542ZrO2    ZO 1625   1.452   2.331   2.800
  542ZrO2    ZO 1626   1.485   2.585   2.973
  543ZrO2    ZR 1627   1.604   2.238   2.939
  543ZrO2    ZO 1628   1.675   2.125   2.604
  543ZrO2    ZO 1629   1.709   2.380   2.777
  544ZrO2    ZR 1630   1.821   2.238   2.679
  544ZrO2    ZO 1631   1.715   2.380   3.037
  544ZrO2    ZO 1632   1.749   2.125   2.864
  545ZrO2    ZR 1633   1.867   2.473   2.898
  545ZrO2    ZO 1634   1.939   2.585   2.713
  545ZrO2    ZO 1635   1.972   2.331   2.540
  546ZrO2    ZR 1636   2.084   2.473   2.638
  546ZrO2    ZO 1637   1.979   2.331   2.800
  546ZrO2    ZO 1638   2.012   2.585   2.973
  547ZrO2    ZR 1639   2.131   2.238   2.939
  547ZrO2    ZO 1640   2.202   2.125   2.604
  547ZrO2    ZO 1641   2.236   2.380   2.777
  548ZrO2    ZR 1642   2.347   2.238   2.679
  548ZrO2    ZO 1643   2.242   2.380   3.037
  548ZrO2    ZO 1644   2.276   2.125   2.864
  549ZrO2    ZR 1645   2.394   2.473   2.898
  549ZrO2    ZO 1646   2.466   2.585   2.713
  549ZrO2    ZO 1647   2.499   2.331   2.540
  550ZrO2    ZR 1648   2.611   2.473   2.638
  550ZrO2    ZO 1649   2.505   2.331   2.800
  550ZrO2    ZO 1650   2.539   2.585   2.973
  551ZrO2    ZR 1651   1.340   0.379   3.417
  551ZrO2    ZO 1652   1.412   0.491   3.232
  551ZrO2    ZO 1653   1.446   0.237   3.059
  552ZrO2    ZR 1654   1.557   0.379   3.158
  552ZrO2    ZO 1655   1.452   0.237   3.319
  552ZrO2    ZO 1656   1.485   0.491   3.492
  553ZrO2    ZR 1657   1.604   0.145   3.459
  553ZrO2    ZO 1658   1.675   0.032   3.124
  553ZrO2    ZO 1659   1.709   0.286   3.297
  554ZrO2    ZR 1660   1.821   0.145   3.199
  554ZrO2    ZO 1661   1.715   0.286   3.557
  554ZrO2    ZO 1662   1.749   0.032   3.384
  555ZrO2    ZR 1663   1.867   0.379   3.417
  555ZrO2    ZO 1664   1.939   0.491   3.232
  555ZrO2    ZO 1665   1.972   0.237   3.059
  556ZrO2    ZR 1666   2.084   0.379   3.158
  556ZrO2    ZO 1667   1.979   0.237   3.319
  556ZrO2    ZO 1668   2.012   0.491   3.492
  557ZrO2    ZR 1669   2.131   0.145   3.459
  557ZrO2    ZO 1670   2.202   0.032   3.124
  557ZrO2    ZO 1671   2.236   0.286   3.297
  558ZrO2    ZR 1672   2.347   0.145   3.199
  558ZrO2    ZO 1673   2.242   0.286   3.557
  558ZrO2    ZO 1674   2.276   0.032   3.384
  559ZrO2    ZR 1675   2.394   0.379   3.417
  559ZrO2    ZO 1676   2.466   0.491   3.232
  559ZrO2    ZO 1677   2.499   0.237   3.059
  560ZrO2    ZR 1678   2.611   0.379   3.158
  560ZrO2    ZO 1679   2.505   0.237   3.319
  560ZrO2    ZO 1680   2.539   0.491   3.492
  561ZrO2    ZR 1681   1.340   0.902   3.417
  561ZrO2    ZO 1682   1.412   1.015   3.232
  561ZrO2    ZO 1683   1.446   0.761   3.059
  562ZrO2    ZR 1684   1.557   0.902   3.158
  562ZrO2    ZO 1685   1.452   0.761   3.319
  562ZrO2    ZO 1686   1.485   1.015   3.492
  563ZrO2    ZR 1687   1.604   0.668   3.459
  563ZrO2    ZO 1688   1.675   0.555   3.124
  563ZrO2    ZO 1689   1.709   0.810   3.297
  564ZrO2    ZR 1690   1.821   0.668   3.199
  564ZrO2    ZO 1691   1.715   0.810   3.557
  564ZrO2    ZO 1692   1.749   0.555   3.384
  565ZrO2    ZR 1693   1.867   0.902   3.417
  565ZrO2    ZO 1694   1.939   1.015   3.232
  565ZrO2    ZO 1695   1.972   0.761   3.059
  566ZrO2    ZR 1696   2.084   0.902   3.158
  566ZrO2    ZO 1697   1.979   0.761   3.319
  566ZrO2    ZO 1698   2.012   1.015   3.492
  567ZrO2    ZR 1699   2.131   0.668   3.459
  567ZrO2    ZO 1700   2.202   0.555   3.124
  567ZrO2    ZO 1701   2.236   0.810   3.297
  568ZrO2    ZR 1702   2.347   0.668   3.199
  568ZrO2    ZO 1703   2.242   0.810   3.557
  568ZrO2    ZO 1704   2.276   0.555   3.384
  569ZrO2    ZR 1705   2.394   0.902   3.417
  569ZrO2    ZO 1706   2.466   1.015   3.232
  569ZrO2    ZO 1707   2.499   0.761   3.059
  570ZrO2    ZR 1708   2.611   0.902   3.158
  570ZrO2    ZO 1709   2.505   0.761   3.319
  570ZrO2    ZO 1710   2.539   1.015   3.492
  571ZrO2    ZR 1711   1.340   1.426   3.417
  571ZrO2    ZO 1712   1.412   1.538   3.232
  571ZrO2    ZO 1713   1.446   1.284   3.059
  572ZrO2    ZR 1714   1.557   1.426   3.158
  572ZrO2    ZO 1715   1.452   1.284   3.319
  572ZrO2    ZO 1716   1.485   1.538   3.492
  573ZrO2    ZR 1717   1.604   1.191   3.459
  573ZrO2    ZO 1718   1.675   1.079   3.124
  573ZrO2    ZO 1719   1.709   1.333   3.297
  574ZrO2    ZR 1720   1.821   1.191   3.199
  574ZrO2    ZO 1721   1.715   1.333   3.557
  574ZrO2    ZO 1722   1.749   1.079   3.384
  575ZrO2    ZR 1723   1.867   1.426   3.417
  575ZrO2    ZO 1724   1.939   1.538   3.232
  575ZrO2    ZO 1725   1.972   1.284   3.059
  576ZrO2    ZR 1726   2.084   1.426   3.158
  576ZrO2    ZO 1727   1.979   1.284   3.319
  576ZrO2    ZO 1728   2.012   1.538   3.492
  577ZrO2    ZR 1729   2.131   1.191   3.459
  577ZrO2    ZO 1730   2.202   1.079   3.124
  577ZrO2    ZO 1731   2.236   1.333   3.297
  578ZrO2    ZR 1732   2.347   1.191   3.199
  578ZrO2    ZO 1733   2.242   1.333   3.557
  578ZrO2    ZO 1734   2.276   1.079   3.384
  579ZrO2    ZR 1735   2.394   1.426   3.417
  579ZrO2    ZO 1736   2.466   1.538   3.232
  579ZrO2    ZO 1737   2.499   1.284   3.059
  580ZrO2    ZR 1738   2.611   1.426   3.158
  580ZrO2    ZO 1739   2.505   1.284   3.319
  580ZrO2    ZO 1740   2.539   1.538   3.492
  581ZrO2    ZR 1741   1.340   1.949   3.417
  581ZrO2    ZO 1742   1.412   2.062   3.232
  581ZrO2    ZO 1743   1.446   1.807   3.059
  582ZrO2    ZR 1744   1.557   1.949   3.158
  582ZrO2    ZO 1745   1.452   1.807   3.319
  582ZrO2    ZO 1746   1.485   2.062   3.492
  583ZrO2    ZR 1747   1.604   1.715   3.459
  583ZrO2    ZO 1748   1.675   1.602   3.124
  583ZrO2    ZO 1749   1.709   1.857   3.297
  584ZrO2    ZR 1750   1.821   1.715   3.199
  584ZrO2    ZO 1751   1.715   1.857   3.557
  584ZrO2    ZO 1752   1.749   1.602   3.384
  585ZrO2    ZR 1753   1.867   1.949   3.417
  585ZrO2    ZO 1754   1.939   2.062   3.232
  585ZrO2    ZO 1755   1.972   1.807   3.059
  586ZrO2    ZR 1756   2.084   1.949   3.158
  586ZrO2    ZO 1757   1.979   1.807   3.319
  586ZrO2    ZO 1758   2.012   2.062   3.492
  587ZrO2    ZR 1759   2.131   1.715   3.459
  587ZrO2    ZO 1760   2.202   1.602   3.124
  587ZrO2    ZO 1761   2.236   1.857   3.297
  588ZrO2    ZR 1762   2.347   1.715   3.199
  588ZrO2    ZO 1763   2.242   1.857   3.557
  588ZrO2    ZO 1764   2.276   1.602   3.384
  589ZrO2    ZR 1765   2.394   1.949   3.417
  589ZrO2    ZO 1766   2.466   2.062   3.232
  589ZrO2    ZO 1767   2.499   1.807   3.059
  590ZrO2    ZR 1768   2.611   1.949   3.158
  590ZrO2    ZO 1769   2.505   1.807   3.319
  590ZrO2    ZO 1770   2.539   2.062   3.492
  591ZrO2    ZR 1771   1.340   2.473   3.417
  591ZrO2    ZO 1772   1.412   2.585   3.232
  591ZrO2    ZO 1773   1.446   2.331   3.059
  592ZrO2    ZR 1774   1.557   2.473   3.158
  592ZrO2    ZO 1775   1.452   2.331   3.319
  592ZrO2    ZO 1776   1.485   2.585   3.492
  593ZrO2    ZR 1777   1.604   2.238   3.459
  593ZrO2    ZO 1778   1.675   2.125   3.124
  593ZrO2    ZO 1779   1.709   2.380   3.297
  594ZrO2    ZR 1780   1.821   2.238   3.199
  594ZrO2    ZO 1781   1.715   2.380   3.557
  594ZrO2    ZO 1782   1.749   2.125   3.384
  595ZrO2    ZR 1783   1.867   2.473   3.417
  595ZrO2    ZO 1784   1.939   2.585   3.232
  595ZrO2    ZO 1785   1.972   2.331   3.059
  596ZrO2    ZR 1786   2.084   2.473   3.158
  596ZrO2    ZO 1787   1.979   2.331   3.319
  596ZrO2    ZO 1788   2.012   2.585   3.492
  597ZrO2    ZR 1789   2.131   2.238   3.459
  597ZrO2    ZO 1790   2.202   2.125   3.124
  597ZrO2    ZO 1791   2.236   2.380   3.297
  598ZrO2    ZR 1792   2.347   2.238   3.199
  598ZrO2    ZO 1793   2.242   2.380   3.557
  598ZrO2    ZO 1794   2.276   2.125   3.384
  599ZrO2    ZR 1795   2.394   2.473   3.417
  599ZrO2    ZO 1796   2.466   2.585   3.232
  599ZrO2    ZO 1797   2.499   2.331   3.059
  600ZrO2    ZR 1798   2.611   2.473   3.158
  600ZrO2    ZO 1799   2.505   2.331   3.319
  600ZrO2    ZO 1800   2.539   2.585   3.492
  601ZrO2    ZR 1801   1.340   2.996   1.858
  601ZrO2    ZO 1802   1.412   3.109   1.673
  601ZrO2    ZO 1803   1.446   2.854   1.500
  602ZrO2    ZR 1804   1.557   2.996   1.598
  602ZrO2    ZO 1805   1.452   2.854   1.760
  602ZrO2    ZO 1806   1.485   3.109   1.933
  603ZrO2    ZR 1807   1.604   2.761   1.900
  603ZrO2    ZO 1808   1.675   2.649   1.565
  603ZrO2    ZO 1809   1.709   2.903   1.738
  604ZrO2    ZR 1810   1.821   2.761   1.640
  604ZrO2    ZO 1811   1.715   2.903   1.997
  604ZrO2    ZO 1812   1.749   2.649   1.824
  605ZrO2    ZR 1813   1.867   2.996   1.858
  605ZrO2    ZO 1814   1.939   3.109   1.673
  605ZrO2    ZO 1815   1.972   2.854   1.500
  606ZrO2    ZR 1816   2.084   2.996   1.598
  606ZrO2    ZO 1817   1.979   2.854   1.760
  606ZrO2    ZO 1818   2.012   3.109   1.933
  607ZrO2    ZR 1819   2.131   2.761   1.900
  607ZrO2    ZO 1820   2.202   2.649   1.565
  607ZrO2    ZO 1821   2.236   2.903   1.738
  608ZrO2    ZR 1822   2.347   2.761   1.640
  608ZrO2    ZO 1823   2.242   2.903   1.997
  608ZrO2    ZO 1824   2.276   2.649   1.824
  609ZrO2    ZR 1825   2.394   2.996   1.858
  609ZrO2    ZO 1826   2.466   3.109   1.673
  609ZrO2    ZO 1827   2.499   2.854   1.500
  610ZrO2    ZR 1828   2.611   2.996   1.598
  610ZrO2    ZO 1829   2.505   2.854   1.760
  610ZrO2    ZO 1830   2.539   3.109   1.933
  611ZrO2    ZR 1831   1.340   3.519   1.858
  611ZrO2    ZO 1832   1.412   3.632   1.673
  611ZrO2    ZO 1833   1.446   3.378   1.500
  612ZrO2    ZR 1834   1.557   3.519   1.598
  612ZrO2    ZO 1835   1.452   3.378   1.760
  612ZrO2    ZO 1836   1.485   3.632   1.933
  613ZrO2    ZR 1837   1.604   3.285   1.900
  613ZrO2    ZO 1838   1.675   3.172   1.565
  613ZrO2    ZO 1839   1.709   3.427   1.738
  614ZrO2    ZR 1840   1.821   3.285   1.640
  614ZrO2    ZO 1841   1.715   3.427   1.997
  614ZrO2    ZO 1842   1.749   3.172   1.824
  615ZrO2    ZR 1843   1.867   3.519   1.858
  615ZrO2    ZO 1844   1.939   3.632   1.673
  615ZrO2    ZO 1845   1.972   3.378   1.500
  616ZrO2    ZR 1846   2.084   3.519   1.598
  616ZrO2    ZO 1847   1.979   3.378   1.760
  616ZrO2    ZO 1848   2.012   3.632   1.933
  617ZrO2    ZR 1849   2.131   3.285   1.900
  617ZrO2    ZO 1850   2.202   3.172   1.565
  617ZrO2    ZO 1851   2.236   3.427   1.738
  618ZrO2    ZR 1852   2.347   3.285   1.640
  618ZrO2    ZO 1853   2.242   3.427   1.997
  618ZrO2    ZO 1854   2.276   3.172   1.824
  619ZrO2    ZR 1855   2.394   3.519   1.858
  619ZrO2    ZO 1856   2.466   3.632   1.673
  619ZrO2    ZO 1857   2.499   3.378   1.500
  620ZrO2    ZR 1858   2.611   3.519   1.598
  620ZrO2    ZO 1859   2.505   3.378   1.760
  620ZrO2    ZO 1860   2.539   3.632   1.933
  621ZrO2    ZR 1861   1.340   4.043   1.858
  621ZrO2    ZO 1862   1.412   4.155   1.673
  621ZrO2    ZO 1863   1.446   3.901   1.500
  622ZrO2    ZR 1864   1.557   4.043   1.598
  622ZrO2    ZO 1865   1.452   3.901   1.760
  622ZrO2    ZO 1866   1.485   4.155   1.933
  623ZrO2    ZR 1867   1.604   3.808   1.900
  623ZrO2    ZO 1868   1.675   3.696   1.565
  623ZrO2    ZO 1869   1.709   3.950   1.738
  624ZrO2    ZR 1870   1.821   3.808   1.640
  624ZrO2    ZO 1871   1.715   3.950   1.997
  624ZrO2    ZO 1872   1.749   3.696   1.824
  625ZrO2    ZR 1873   1.867   4.043   1.858
  625ZrO2    ZO 1874   1.939   4.155   1.673
  625ZrO2    ZO 1875   1.972   3.901   1.500
  626ZrO2    ZR 1876   2.084   4.043   1.598
  626ZrO2    ZO 1877   1.979   3.901   1.760
  626ZrO2    ZO 1878   2.012   4.155   1.933
  627ZrO2    ZR 1879   2.131   3.808   1.900
  627ZrO2    ZO 1880   2.202   3.696   1.565
  627ZrO2    ZO 1881   2.236   3.950   1.738
  628ZrO2    ZR 1882   2.347   3.808   1.640
  628ZrO2    ZO 1883   2.242   3.950   1.997
  628ZrO2    ZO 1884   2.276   3.696   1.824
  629ZrO2    ZR 1885   2.394   4.043   1.858
  629ZrO2    ZO 1886   2.466   4.155   1.673
  629ZrO2    ZO 1887   2.499   3.901   1.500
  630ZrO2    ZR 1888   2.611   4.043   1.598
  630ZrO2    ZO 1889   2.505   3.901   1.760
  630ZrO2    ZO 1890   2.539   4.155   1.933
  631ZrO2    ZR 1891   1.340   4.566   1.858
  631ZrO2    ZO 1892   1.412   4.679   1.673
  631ZrO2    ZO 1893   1.446   4.424   1.500
  632ZrO2    ZR 1894   1.557   4.566   1.598
  632ZrO2    ZO 1895   1.452   4.424   1.760
  632ZrO2    ZO 1896   1.485   4.679   1.933
  633ZrO2    ZR 1897   1.604   4.332   1.900
  633ZrO2    ZO 1898   1.675   4.219   1.565
  633ZrO2    ZO 1899   1.709   4.473   1.738
  634ZrO2    ZR 1900   1.821   4.332   1.640
  634ZrO2    ZO 1901   1.715   4.473   1.997
  634ZrO2    ZO 1902   1.749   4.219   1.824
  635ZrO2    ZR 1903   1.867   4.566   1.858
  635ZrO2    ZO 1904   1.939   4.679   1.673
  635ZrO2    ZO 1905   1.972   4.424   1.500
  636ZrO2    ZR 1906   2.084   4.566   1.598
  636ZrO2    ZO 1907   1.979   4.424   1.760
  636ZrO2    ZO 1908   2.012   4.679   1.933
  637ZrO2    ZR 1909   2.131   4.332   1.900
  637ZrO2    ZO 1910   2.202   4.219   1.565
  637ZrO2    ZO 1911   2.236   4.473   1.738
  638ZrO2    ZR 1912   2.347   4.332   1.640
  638ZrO2    ZO 1913   2.242   4.473   1.997
  638ZrO2    ZO 1914   2.276   4.219   1.824
  639ZrO2    ZR 1915   2.394   4.566   1.858
  639ZrO2    ZO 1916   2.466   4.679   1.673
  639ZrO2    ZO 1917   2.499   4.424   1.500
  640ZrO2    ZR 1918   2.611   4.566   1.598
  640ZrO2    ZO 1919   2.505   4.424   1.760
  640ZrO2    ZO 1920   2.539   4.679   1.933
  641ZrO2    ZR 1921   1.340   5.089   1.858
  641ZrO2    ZO 1922   1.412   5.202   1.673
  641ZrO2    ZO 1923   1.446   4.948   1.500
  642ZrO2    ZR 1924   1.557   5.089   1.598
  642ZrO2    ZO 1925   1.452   4.948   1.760
  642ZrO2    ZO 1926   1.485   5.202   1.933
  643ZrO2    ZR 1927   1.604   4.855   1.900
  643ZrO2    ZO 1928   1.675   4.742   1.565
  643ZrO2    ZO 1929   1.709   4.997   1.738
  644ZrO2    ZR 1930   1.821   4.855   1.640
  644ZrO2    ZO 1931   1.715   4.997   1.997
  644ZrO2    ZO 1932   1.749   4.742   1.824
  645ZrO2    ZR 1933   1.867   5.089   1.858
  645ZrO2    ZO 1934   1.939   5.202   1.673
  645ZrO2    ZO 1935   1.972   4.948   1.500
  646ZrO2    ZR 1936   2.084   5.089   1.598
  646ZrO2    ZO 1937   1.979   4.948   1.760
  646ZrO2    ZO 1938   2.012   5.202   1.933
  647ZrO2    ZR 1939   2.131   4.855   1.900
  647ZrO2    ZO 1940   2.202   4.742   1.565
  647ZrO2    ZO 1941   2.236   4.997   1.738
  648ZrO2    ZR 1942   2.347   4.855   1.640
  648ZrO2    ZO 1943   2.242   4.997   1.997
  648ZrO2    ZO 1944   2.276   4.742   1.824
  649ZrO2    ZR 1945   2.394   5.089   1.858
  649ZrO2    ZO 1946   2.466   5.202   1.673
  649ZrO2    ZO 1947   2.499   4.948   1.500
  650ZrO2    ZR 1948   2.611   5.089   1.598
  650ZrO2    ZO 1949   2.505   4.948   1.760
  650ZrO2    ZO 1950   2.539   5.202   1.933
  651ZrO2    ZR 1951   1.340   2.996   2.378
  651ZrO2    ZO 1952   1.412   3.109   2.193
  651ZrO2    ZO 1953   1.446   2.854   2.020
  652ZrO2    ZR 1954   1.557   2.996   2.118
  652ZrO2    ZO 1955   1.452   2.854   2.280
  652ZrO2    ZO 1956   1.485   3.109   2.453
  653ZrO2    ZR 1957   1.604   2.761   2.419
  653ZrO2    ZO 1958   1.675   2.649   2.084
  653ZrO2    ZO 1959   1.709   2.903   2.257
  654ZrO2    ZR 1960   1.821   2.761   2.159
  654ZrO2    ZO 1961   1.715   2.903   2.517
  654ZrO2    ZO 1962   1.749   2.649   2.344
  655ZrO2    ZR 1963   1.867   2.996   2.378
  655ZrO2    ZO 1964   1.939   3.109   2.193
  655ZrO2    ZO 1965   1.972   2.854   2.020
  656ZrO2    ZR 1966   2.084   2.996   2.118
  656ZrO2    ZO 1967   1.979   2.854   2.280
  656ZrO2    ZO 1968   2.012   3.109   2.453
  657ZrO2    ZR 1969   2.131   2.761   2.419
  657ZrO2    ZO 1970   2.202   2.649   2.084
  657ZrO2    ZO 1971   2.236   2.903   2.257
  658ZrO2    ZR 1972   2.347   2.761   2.159
  658ZrO2    ZO 1973   2.242   2.903   2.517
  658ZrO2    ZO 1974   2.276   2.649   2.344
  659ZrO2    ZR 1975   2.394   2.996   2.378
  659ZrO2    ZO 1976   2.466   3.109   2.193
  659ZrO2    ZO 1977   2.499   2.854   2.020
  660ZrO2    ZR 1978   2.611   2.996   2.118
  660ZrO2    ZO 1979   2.505   2.854   2.280
  660ZrO2    ZO 1980   2.539   3.109   2.453
  661ZrO2    ZR 1981   1.340   3.519   2.378
  661ZrO2    ZO 1982   1.412   3.632   2.193
  661ZrO2    ZO 1983   1.446   3.378   2.020
  662ZrO2    ZR 1984   1.557   3.519   2.118
  662ZrO2    ZO 1985   1.452   3.378   2.280
  662ZrO2    ZO 1986   1.485   3.632   2.453
  663ZrO2    ZR 1987   1.604   3.285   2.419
  663ZrO2    ZO 1988   1.675   3.172   2.084
  663ZrO2    ZO 1989   1.709   3.427   2.257
  664ZrO2    ZR 1990   1.821   3.285   2.159
  664ZrO2    ZO 1991   1.715   3.427   2.517
  664ZrO2    ZO 1992   1.749   3.172   2.344
  665ZrO2    ZR 1993   1.867   3.519   2.378
  665ZrO2    ZO 1994   1.939   3.632   2.193
  665ZrO2    ZO 1995   1.972   3.378   2.020
  666ZrO2    ZR 1996   2.084   3.519   2.118
  666ZrO2    ZO 1997   1.979   3.378   2.280
  666ZrO2    ZO 1998   2.012   3.632   2.453
  667ZrO2    ZR 1999   2.131   3.285   2.419
  667ZrO2    ZO 2000   2.202   3.172   2.084
  667ZrO2    ZO 2001   2.236   3.427   2.257
  668ZrO2    ZR 2002   2.347   3.285   2.159
  668ZrO2    ZO 2003   2.242   3.427   2.517
  668ZrO2    ZO 2004   2.276   3.172   2.344
  669ZrO2    ZR 2005   2.394   3.519   2.378
  669ZrO2    ZO 2006   2.466   3.632   2.193
  669ZrO2    ZO 2007   2.499   3.378   2.020
  670ZrO2    ZR 2008   2.611   3.519   2.118
  670ZrO2    ZO 2009   2.505   3.378   2.280
  670ZrO2    ZO 2010   2.539   3.632   2.453
  671ZrO2    ZR 2011   1.340   4.043   2.378
  671ZrO2    ZO 2012   1.412   4.155   2.193
  671ZrO2    ZO 2013   1.446   3.901   2.020
  672ZrO2    ZR 2014   1.557   4.043   2.118
  672ZrO2    ZO 2015   1.452   3.901   2.280
  672ZrO2    ZO 2016   1.485   4.155   2.453
  673ZrO2    ZR 2017   1.604   3.808   2.419
  673ZrO2    ZO 2018   1.675   3.696   2.084
  673ZrO2    ZO 2019   1.709   3.950   2.257
  674ZrO2    ZR 2020   1.821   3.808   2.159
  674ZrO2    ZO 2021   1.715   3.950   2.517
  674ZrO2    ZO 2022   1.749   3.696   2.344
  675ZrO2    ZR 2023   1.867   4.043   2.378
  675ZrO2    ZO 2024   1.939   4.155   2.193
  675ZrO2    ZO 2025   1.972   3.901   2.020
  676ZrO2    ZR 2026   2.084   4.043   2.118
  676ZrO2    ZO 2027   1.979   3.901   2.280
  676ZrO2    ZO 2028   2.012   4.155   2.453
  677ZrO2    ZR 2029   2.131   3.808   2.419
  677ZrO2    ZO 2030   2.202   3.696   2.084
  677ZrO2    ZO 2031   2.236   3.950   2.257
  678ZrO2    ZR 2032   2.347   3.808   2.159
  678ZrO2    ZO 2033   2.242   3.950   2.517
  678ZrO2    ZO 2034   2.276   3.696   2.344
  679ZrO2    ZR 2035   2.394   4.043   2.378
  679ZrO2    ZO 2036   2.466   4.155   2.193
  679ZrO2    ZO 2037   2.499   3.901   2.020
  680ZrO2    ZR 2038   2.611   4.043   2.118
  680ZrO2    ZO 2039   2.505   3.901   2.280
  680ZrO2    ZO 2040   2.539   4.155   2.453
  681ZrO2    ZR 2041   1.340   4.566   2.378
  681ZrO2    ZO 2042   1.412   4.679   2.193
  681ZrO2    ZO 2043   1.446   4.424   2.020
  682ZrO2    ZR 2044   1.557   4.566   2.118
  682ZrO2    ZO 2045   1.452   4.424   2.280
  682ZrO2    ZO 2046   1.485   4.679   2.453
  683ZrO2    ZR 2047   1.604   4.332   2.419
  683ZrO2    ZO 2048   1.675   4.219   2.084
  683ZrO2    ZO 2049   1.709   4.473   2.257
  684ZrO2    ZR 2050   1.821   4.332   2.159
  684ZrO2    ZO 2051   1.715   4.473   2.517
  684ZrO2    ZO 2052   1.749   4.219   2.344
  685ZrO2    ZR 2053   1.867   4.566   2.378
  685ZrO2    ZO 2054   1.939   4.679   2.193
  685ZrO2    ZO 2055   1.972   4.424   2.020
  686ZrO2    ZR 2056   2.084   4.566   2.118
  686ZrO2    ZO 2057   1.979   4.424   2.280
  686ZrO2    ZO 2058   2.012   4.679   2.453
  687ZrO2    ZR 2059   2.131   4.332   2.419
  687ZrO2    ZO 2060   2.202   4.219   2.084
  687ZrO2    ZO 2061   2.236   4.473   2.257
  688ZrO2    ZR 2062   2.347   4.332   2.159
  688ZrO2    ZO 2063   2.242   4.473   2.517
  688ZrO2    ZO 2064   2.276   4.219   2.344
  689ZrO2    ZR 2065   2.394   4.566   2.378
  689ZrO2    ZO 2066   2.466   4.679   2.193
  689ZrO2    ZO 2067   2.499   4.424   2.020
  690ZrO2    ZR 2068   2.611   4.566   2.118
  690ZrO2    ZO 2069   2.505   4.424   2.280
  690ZrO2    ZO 2070   2.539   4.679   2.453
  691ZrO2    ZR 2071   1.340   5.089   2.378
  691ZrO2    ZO 2072   1.412   5.202   2.193
  691ZrO2    ZO 2073   1.446   4.948   2.020
  692ZrO2    ZR 2074   1.557   5.089   2.118
  692ZrO2    ZO 2075   1.452   4.948   2.280
  692ZrO2    ZO 2076   1.485   5.202   2.453
  693ZrO2    ZR 2077   1.604   4.855   2.419
  693ZrO2    ZO 2078   1.675   4.742   2.084
  693ZrO2    ZO 2079   1.709   4.997   2.257
  694ZrO2    ZR 2080   1.821   4.855   2.159
  694ZrO2    ZO 2081   1.715   4.997   2.517
  694ZrO2    ZO 2082   1.749   4.742   2.344
  695ZrO2    ZR 2083   1.867   5.089   2.378
  695ZrO2    ZO 2084   1.939   5.202   2.193
  695ZrO2    ZO 2085   1.972   4.948   2.020
  696ZrO2    ZR 2086   2.084   5.089   2.118
  696ZrO2    ZO 2087   1.979   4.948   2.280
  696ZrO2    ZO 2088   2.012   5.202   2.453
  697ZrO2    ZR 2089   2.131   4.855   2.419
  697ZrO2    ZO 2090   2.202   4.742   2.084
  697ZrO2    ZO 2091   2.236   4.997   2.257
  698ZrO2    ZR 2092   2.347   4.855   2.159
  698ZrO2    ZO 2093   2.242   4.997   2.517
  698ZrO2    ZO 2094   2.276   4.742   2.344
  699ZrO2    ZR 2095   2.394   5.089   2.378
  699ZrO2    ZO 2096   2.466   5.202   2.193
  699ZrO2    ZO 2097   2.499   4.948   2.020
  700ZrO2    ZR 2098   2.611   5.089   2.118
  700ZrO2    ZO 2099   2.505   4.948   2.280
  700ZrO2    ZO 2100   2.539   5.202   2.453
  701ZrO2    ZR 2101   1.340   2.996   2.898
  701ZrO2    ZO 2102   1.412   3.109   2.713
  701ZrO2    ZO 2103   1.446   2.854   2.540
  702ZrO2    ZR 2104   1.557   2.996   2.638
  702ZrO2    ZO 2105   1.452   2.854   2.800
  702ZrO2    ZO 2106   1.485   3.109   2.973
  703ZrO2    ZR 2107   1.604   2.761   2.939
  703ZrO2    ZO 2108   1.675   2.649   2.604
  703ZrO2    ZO 2109   1.709   2.903   2.777
  704ZrO2    ZR 2110   1.821   2.761   2.679
  704ZrO2    ZO 2111   1.715   2.903   3.037
  704ZrO2    ZO 2112   1.749   2.649   2.864
  705ZrO2    ZR 2113   1.867   2.996   2.898
  705ZrO2    ZO 2114   1.939   3.109   2.713
  705ZrO2    ZO 2115   1.972   2.854   2.540
  706ZrO2    ZR 2116   2.084   2.996   2.638
  706ZrO2    ZO 2117   1.979   2.854   2.800
  706ZrO2    ZO 2118   2.012   3.109   2.973
  707ZrO2    ZR 2119   2.131   2.761   2.939
  707ZrO2    ZO 2120   2.202   2.649   2.604
  707ZrO2    ZO 2121   2.236   2.903   2.777
  708ZrO2    ZR 2122   2.347   2.761   2.679
  708ZrO2    ZO 2123   2.242   2.903   3.037
  708ZrO2    ZO 2124   2.276   2.649   2.864
  709ZrO2    ZR 2125   2.394   2.996   2.898
  709ZrO2    ZO 2126   2.466   3.109   2.713
  709ZrO2    ZO 2127   2.499   2.854   2.540
  710ZrO2    ZR 2128   2.611   2.996   2.638
  710ZrO2    ZO 2129   2.505   2.854   2.800
  710ZrO2    ZO 2130   2.539   3.109   2.973
  711ZrO2    ZR 2131   1.340   3.519   2.898
  711ZrO2    ZO 2132   1.412   3.632   2.713
  711ZrO2    ZO 2133   1.446   3.378   2.540
  712ZrO2    ZR 2134   1.557   3.519   2.638
  712ZrO2    ZO 2135   1.452   3.378   2.800
  712ZrO2    ZO 2136   1.485   3.632   2.973
  713ZrO2    ZR 2137   1.604   3.285   2.939
  713ZrO2    ZO 2138   1.675   3.172   2.604
  713ZrO2    ZO 2139   1.709   3.427   2.777
  714ZrO2    ZR 2140   1.821   3.285   2.679
  714ZrO2    ZO 2141   1.715   3.427   3.037
  714ZrO2    ZO 2142   1.749   3.172   2.864
  715ZrO2    ZR 2143   1.867   3.519   2.898
  715ZrO2    ZO 2144   1.939   3.632   2.713
  715ZrO2    ZO 2145   1.972   3.378   2.540
  716ZrO2    ZR 2146   2.084   3.519   2.638
  716ZrO2    ZO 2147   1.979   3.378   2.800
  716ZrO2    ZO 2148   2.012   3.632   2.973
  717ZrO2    ZR 2149   2.131   3.285   2.939
  717ZrO2    ZO 2150   2.202   3.172   2.604
  717ZrO2    ZO 2151   2.236   3.427   2.777
  718ZrO2    ZR 2152   2.347   3.285   2.679
  718ZrO2    ZO 2153   2.242   3.427   3.037
  718ZrO2    ZO 2154   2.276   3.172   2.864
  719ZrO2    ZR 2155   2.394   3.519   2.898
  719ZrO2    ZO 2156   2.466   3.632   2.713
  719ZrO2    ZO 2157   2.499   3.378   2.540
  720ZrO2    ZR 2158   2.611   3.519   2.638
  720ZrO2    ZO 2159   2.505   3.378   2.800
  720ZrO2    ZO 2160   2.539   3.632   2.973
  721ZrO2    ZR 2161   1.340   4.043   2.898
  721ZrO2    ZO 2162   1.412   4.155   2.713
  721ZrO2    ZO 2163   1.446   3.901   2.540
  722ZrO2    ZR 2164   1.557   4.043   2.638
  722ZrO2    ZO 2165   1.452   3.901   2.800
  722ZrO2    ZO 2166   1.485   4.155   2.973
  723ZrO2    ZR 2167   1.604   3.808   2.939
  723ZrO2    ZO 2168   1.675   3.696   2.604
  723ZrO2    ZO 2169   1.709   3.950   2.777
  724ZrO2    ZR 2170   1.821   3.808   2.679
  724ZrO2    ZO 2171   1.715   3.950   3.037
  724ZrO2    ZO 2172   1.749   3.696   2.864
  725ZrO2    ZR 2173   1.867   4.043   2.898
  725ZrO2    ZO 2174   1.939   4.155   2.713
  725ZrO2    ZO 2175   1.972   3.901   2.540
  726ZrO2    ZR 2176   2.084   4.043   2.638
  726ZrO2    ZO 2177   1.979   3.901   2.800
  726ZrO2    ZO 2178   2.012   4.155   2.973
  727ZrO2    ZR 2179   2.131   3.808   2.939
  727ZrO2    ZO 2180   2.202   3.696   2.604
  727ZrO2    ZO 2181   2.236   3.950   2.777
  728ZrO2    ZR 2182   2.347   3.808   2.679
  728ZrO2    ZO 2183   2.242   3.950   3.037
  728ZrO2    ZO 2184   2.276   3.696   2.864
  729ZrO2    ZR 2185   2.394   4.043   2.898
  729ZrO2    ZO 2186   2.466   4.155   2.713
  729ZrO2    ZO 2187   2.499   3.901   2.540
  730ZrO2    ZR 2188   2.611   4.043   2.638
  730ZrO2    ZO 2189   2.505   3.901   2.800
  730ZrO2    ZO 2190   2.539   4.155   2.973
  731ZrO2    ZR 2191   1.340   4.566   2.898
  731ZrO2    ZO 2192   1.412   4.679   2.713
  731ZrO2    ZO 2193   1.446   4.424   2.540
  732ZrO2    ZR 2194   1.557   4.566   2.638
  732ZrO2    ZO 2195   1.452   4.424   2.800
  732ZrO2    ZO 2196   1.485   4.679   2.973
  733ZrO2    ZR 2197   1.604   4.332   2.939
  733ZrO2    ZO 2198   1.675   4.219   2.604
  733ZrO2    ZO 2199   1.709   4.473   2.777
  734ZrO2    ZR 2200   1.821   4.332   2.679
  734ZrO2    ZO 2201   1.715   4.473   3.037
  734ZrO2    ZO 2202   1.749   4.219   2.864
  735ZrO2    ZR 2203   1.867   4.566   2.898
  735ZrO2    ZO 2204   1.939   4.679   2.713
  735ZrO2    ZO 2205   1.972   4.424   2.540
  736ZrO2    ZR 2206   2.084   4.566   2.638
  736ZrO2    ZO 2207   1.979   4.424   2.800
  736ZrO2    ZO 2208   2.012   4.679   2.973
  737ZrO2    ZR 2209   2.131   4.332   2.939
  737ZrO2    ZO 2210   2.202   4.219   2.604
  737ZrO2    ZO 2211   2.236   4.473   2.777
  738ZrO2    ZR 2212   2.347   4.332   2.679
  738ZrO2    ZO 2213   2.242   4.473   3.037
  738ZrO2    ZO 2214   2.276   4.219   2.864
  739ZrO2    ZR 2215   2.394   4.566   2.898
  739ZrO2    ZO 2216   2.466   4.679   2.713
  739ZrO2    ZO 2217   2.499   4.424   2.540
  740ZrO2    ZR 2218   2.611   4.566   2.638
  740ZrO2    ZO 2219   2.505   4.424   2.800
  740ZrO2    ZO 2220   2.539   4.679   2.973
  741ZrO2    ZR 2221   1.340   5.089   2.898
  741ZrO2    ZO 2222   1.412   5.202   2.713
  741ZrO2    ZO 2223   1.446   4.948   2.540
  742ZrO2    ZR 2224   1.557   5.089   2.638
  742ZrO2    ZO 2225   1.452   4.948   2.800
  742ZrO2    ZO 2226   1.485   5.202   2.973
  743ZrO2    ZR 2227   1.604   4.855   2.939
  743ZrO2    ZO 2228   1.675   4.742   2.604
  743ZrO2    ZO 2229   1.709   4.997   2.777
  744ZrO2    ZR 2230   1.821   4.855   2.679
  744ZrO2    ZO 2231   1.715   4.997   3.037
  744ZrO2    ZO 2232   1.749   4.742   2.864
  745ZrO2    ZR 2233   1.867   5.089   2.898
  745ZrO2    ZO 2234   1.939   5.202   2.713
  745ZrO2    ZO 2235   1.972   4.948   2.540
  746ZrO2    ZR 2236   2.084   5.089   2.638
  746ZrO2    ZO 2237   1.979   4.948   2.800
  746ZrO2    ZO 2238   2.012   5.202   2.973
  747ZrO2    ZR 2239   2.131   4.855   2.939
  747ZrO2    ZO 2240   2.202   4.742   2.604
  747ZrO2    ZO 2241   2.236   4.997   2.777
  748ZrO2    ZR 2242   2.347   4.855   2.679
  748ZrO2    ZO 2243   2.242   4.997   3.037
  748ZrO2    ZO 2244   2.276   4.742   2.864
  749ZrO2    ZR 2245   2.394   5.089   2.898
  749ZrO2    ZO 2246   2.466   5.202   2.713
  749ZrO2    ZO 2247   2.499   4.948   2.540
  750ZrO2    ZR 2248   2.611   5.089   2.638
  750ZrO2    ZO 2249   2.505   4.948   2.800
  750ZrO2    ZO 2250   2.539   5.202   2.973
  751ZrO2    ZR 2251   1.340   2.996   3.417
  751ZrO2    ZO 2252   1.412   3.109   3.232
  751ZrO2    ZO 2253   1.446   2.854   3.059
  752ZrO2    ZR 2254   1.557   2.996   3.158
  752ZrO2    ZO 2255   1.452   2.854   3.319
  752ZrO2    ZO 2256   1.485   3.109   3.492
  753ZrO2    ZR 2257   1.604   2.761   3.459
  753ZrO2    ZO 2258   1.675   2.649   3.124
  753ZrO2    ZO 2259   1.709   2.903   3.297
  754ZrO2    ZR 2260   1.821   2.761   3.199
  754ZrO2    ZO 2261   1.715   2.903   3.557
  754ZrO2    ZO 2262   1.749   2.649   3.384
  755ZrO2    ZR 2263   1.867   2.996   3.417
  755ZrO2    ZO 2264   1.939   3.109   3.232
  755ZrO2    ZO 2265   1.972   2.854   3.059
  756ZrO2    ZR 2266   2.084   2.996   3.158
  756ZrO2    ZO 2267   1.979   2.854   3.319
  756ZrO2    ZO 2268   2.012   3.109   3.492
  757ZrO2    ZR 2269   2.131   2.761   3.459
  757ZrO2    ZO 2270   2.202   2.649   3.124
  757ZrO2    ZO 2271   2.236   2.903   3.297
  758ZrO2    ZR 2272   2.347   2.761   3.199
  758ZrO2    ZO 2273   2.242   2.903   3.557
  758ZrO2    ZO 2274   2.276   2.649   3.384
  759ZrO2    ZR 2275   2.394   2.996   3.417
  759ZrO2    ZO 2276   2.466   3.109   3.232
  759ZrO2    ZO 2277   2.499   2.854   3.059
  760ZrO2    ZR 2278   2.611   2.996   3.158
  760ZrO2    ZO 2279   2.505   2.854   3.319
  760ZrO2    ZO 2280   2.539   3.109   3.492
  761ZrO2    ZR 2281   1.340   3.519   3.417
  761ZrO2    ZO 2282   1.412   3.632   3.232
  761ZrO2    ZO 2283   1.446   3.378   3.059
  762ZrO2    ZR 2284   1.557   3.519   3.158
  762ZrO2    ZO 2285   1.452   3.378   3.319
  762ZrO2    ZO 2286   1.485   3.632   3.492
  763ZrO2    ZR 2287   1.604   3.285   3.459
  763ZrO2    ZO 2288   1.675   3.172   3.124
  763ZrO2    ZO 2289   1.709   3.427   3.297
  764ZrO2    ZR 2290   1.821   3.285   3.199
  764ZrO2    ZO 2291   1.715   3.427   3.557
  764ZrO2    ZO 2292   1.749   3.172   3.384
  765ZrO2    ZR 2293   1.867   3.519   3.417
  765ZrO2    ZO 2294   1.939   3.632   3.232
  765ZrO2    ZO 2295   1.972   3.378   3.059
  766ZrO2    ZR 2296   2.084   3.519   3.158
  766ZrO2    ZO 2297   1.979   3.378   3.319
  766ZrO2    ZO 2298   2.012   3.632   3.492
  767ZrO2    ZR 2299   2.131   3.285   3.459
  767ZrO2    ZO 2300   2.202   3.172   3.124
  767ZrO2    ZO 2301   2.236   3.427   3.297
  768ZrO2    ZR 2302   2.347   3.285   3.199
  768ZrO2    ZO 2303   2.242   3.427   3.557
  768ZrO2    ZO 2304   2.276   3.172   3.384
  769ZrO2    ZR 2305   2.394   3.519   3.417
  769ZrO2    ZO 2306   2.466   3.632   3.232
  769ZrO2    ZO 2307   2.499   3.378   3.059
  770ZrO2    ZR 2308   2.611   3.519   3.158
  770ZrO2    ZO 2309   2.505   3.378   3.319
  770ZrO2    ZO 2310   2.539   3.632   3.492
  771ZrO2    ZR 2311   1.340   4.043   3.417
  771ZrO2    ZO 2312   1.412   4.155   3.232
  771ZrO2    ZO 2313   1.446   3.901   3.059
  772ZrO2    ZR 2314   1.557   4.043   3.158
  772ZrO2    ZO 2315   1.452   3.901   3.319
  772ZrO2    ZO 2316   1.485   4.155   3.492
  773ZrO2    ZR 2317   1.604   3.808   3.459
  773ZrO2    ZO 2318   1.675   3.696   3.124
  773ZrO2    ZO 2319   1.709   3.950   3.297
  774ZrO2    ZR 2320   1.821   3.808   3.199
  774ZrO2    ZO 2321   1.715   3.950   3.557
  774ZrO2    ZO 2322   1.749   3.696   3.384
  775ZrO2    ZR 2323   1.867   4.043   3.417
  775ZrO2    ZO 2324   1.939   4.155   3.232
  775ZrO2    ZO 2325   1.972   3.901   3.059
  776ZrO2    ZR 2326   2.084   4.043   3.158
  776ZrO2    ZO 2327   1.979   3.901   3.319
  776ZrO2    ZO 2328   2.012   4.155   3.492
  777ZrO2    ZR 2329   2.131   3.808   3.459
  777ZrO2    ZO 2330   2.202   3.696   3.124
  777ZrO2    ZO 2331   2.236   3.950   3.297
  778ZrO2    ZR 2332   2.347   3.808   3.199
  778ZrO2    ZO 2333   2.242   3.950   3.557
  778ZrO2    ZO 2334   2.276   3.696   3.384
  779ZrO2    ZR 2335   2.394   4.043   3.417
  779ZrO2    ZO 2336   2.466   4.155   3.232
  779ZrO2    ZO 2337   2.499   3.901   3.059
  780ZrO2    ZR 2338   2.611   4.043   3.158
  780ZrO2    ZO 2339   2.505   3.901   3.319
  780ZrO2    ZO 2340   2.539   4.155   3.492
  781ZrO2    ZR 2341   1.340   4.566   3.417
  781ZrO2    ZO 2342   1.412   4.679   3.232
  781ZrO2    ZO 2343   1.446   4.424   3.059
  782ZrO2    ZR 2344   1.557   4.566   3.158
  782ZrO2    ZO 2345   1.452   4.424   3.319
  782ZrO2    ZO 2346   1.485   4.679   3.492
  783ZrO2    ZR 2347   1.604   4.332   3.459
  783ZrO2    ZO 2348   1.675   4.219   3.124
  783ZrO2    ZO 2349   1.709   4.473   3.297
  784ZrO2    ZR 2350   1.821   4.332   3.199
  784ZrO2    ZO 2351   1.715   4.473   3.557
  784ZrO2    ZO 2352   1.749   4.219   3.384
  785ZrO2    ZR 2353   1.867   4.566   3.417
  785ZrO2    ZO 2354   1.939   4.679   3.232
  785ZrO2    ZO 2355   1.972   4.424   3.059
  786ZrO2    ZR 2356   2.084   4.566   3.158
  786ZrO2    ZO 2357   1.979   4.424   3.319
  786ZrO2    ZO 2358   2.012   4.679   3.492
  787ZrO2    ZR 2359   2.131   4.332   3.459
  787ZrO2    ZO 2360   2.202   4.219   3.124
  787ZrO2    ZO 2361   2.236   4.473   3.297
  788ZrO2    ZR 2362   2.347   4.332   3.199
  788ZrO2    ZO 2363   2.242   4.473   3.557
  788ZrO2    ZO 2364   2.276   4.219   3.384
  789ZrO2    ZR 2365   2.394   4.566   3.417
  789ZrO2    ZO 2366   2.466   4.679   3.232
  789ZrO2    ZO 2367   2.499   4.424   3.059
  790ZrO2    ZR 2368   2.611   4.566   3.158
  790ZrO2    ZO 2369   2.505   4.424   3.319
  790ZrO2    ZO 2370   2.539   4.679   3.492
  791ZrO2    ZR 2371   1.340   5.089   3.417
  791ZrO2    ZO 2372   1.412   5.202   3.232
  791ZrO2    ZO 2373   1.446   4.948   3.059
  792ZrO2    ZR 2374   1.557   5.089   3.158
  792ZrO2    ZO 2375   1.452   4.948   3.319
  792ZrO2    ZO 2376   1.485   5.202   3.492
  793ZrO2    ZR 2377   1.604   4.855   3.459
  793ZrO2    ZO 2378   1.675   4.742   3.124
  793ZrO2    ZO 2379   1.709   4.997   3.297
  794ZrO2    ZR 2380   1.821   4.855   3.199
  794ZrO2    ZO 2381   1.715   4.997   3.557
  794ZrO2    ZO 2382   1.749   4.742   3.384
  795ZrO2    ZR 2383   1.867   5.089   3.417
  795ZrO2    ZO 2384   1.939   5.202   3.232
  795ZrO2    ZO 2385   1.972   4.948   3.059
  796ZrO2    ZR 2386   2.084   5.089   3.158
  796ZrO2    ZO 2387   1.979   4.948   3.319
  796ZrO2    ZO 2388   2.012   5.202   3.492
  797ZrO2    ZR 2389   2.131   4.855   3.459
  797ZrO2    ZO 2390   2.202   4.742   3.124
  797ZrO2    ZO 2391   2.236   4.997   3.297
  798ZrO2    ZR 2392   2.347   4.855   3.199
  798ZrO2    ZO 2393   2.242   4.997   3.557
  798ZrO2    ZO 2394   2.276   4.742   3.384
  799ZrO2    ZR 2395   2.394   5.089   3.417
  799ZrO2    ZO 2396   2.466   5.202   3.232
  799ZrO2    ZO 2397   2.499   4.948   3.059
  800ZrO2    ZR 2398   2.611   5.089   3.158
  800ZrO2    ZO 2399   2.505   4.948   3.319
  800ZrO2    ZO 2400   2.539   5.202   3.492
  801ZrO2    ZR 2401   2.657   0.145   1.900
  801ZrO2    ZO 2402   2.729   0.032   1.565
  801ZrO2    ZO 2403   2.763   0.286   1.738
  802ZrO2    ZR 2404   2.874   0.145   1.640
  802ZrO2    ZO 2405   2.769   0.286   1.997
  802ZrO2    ZO 2406   2.803   0.032   1.824
  803ZrO2    ZR 2407   2.921   0.379   1.858
  803ZrO2    ZO 2408   2.992   0.491   1.673
  803ZrO2    ZO 2409   3.026   0.237   1.500
  804ZrO2    ZR 2410   3.138   0.379   1.598
  804ZrO2    ZO 2411   3.032   0.237   1.760
  804ZrO2    ZO 2412   3.066   0.491   1.933
  805ZrO2    ZR 2413   3.184   0.145   1.900
  805ZrO2    ZO 2414   3.256   0.032   1.565
  805ZrO2    ZO 2415   3.289   0.286   1.738
  806ZrO2    ZR 2416   3.401   0.145   1.640
  806ZrO2    ZO 2417   3.296   0.286   1.997
  806ZrO2    ZO 2418   3.329   0.032   1.824
  807ZrO2    ZR 2419   3.447   0.379   1.858
  807ZrO2    ZO 2420   3.519   0.491   1.673
  807ZrO2    ZO 2421   3.553   0.237   1.500
  808ZrO2    ZR 2422   3.664   0.379   1.598
  808ZrO2    ZO 2423   3.559   0.237   1.760
  808ZrO2    ZO 2424   3.593   0.491   1.933
  809ZrO2    ZR 2425   3.711   0.145   1.900
  809ZrO2    ZO 2426   3.783   0.032   1.565
  809ZrO2    ZO 2427   3.816   0.286   1.738
  810ZrO2    ZR 2428   3.928   0.145   1.640
  810ZrO2    ZO 2429   3.822   0.286   1.997
  810ZrO2    ZO 2430   3.856   0.032   1.824
  811ZrO2    ZR 2431   2.657   0.668   1.900
  811ZrO2    ZO 2432   2.729   0.555   1.565
  811ZrO2    ZO 2433   2.763   0.810   1.738
  812ZrO2    ZR 2434   2.874   0.668   1.640
  812ZrO2    ZO 2435   2.769   0.810   1.997
  812ZrO2    ZO 2436   2.803   0.555   1.824
  813ZrO2    ZR 2437   2.921   0.902   1.858
  813ZrO2    ZO 2438   2.992   1.015   1.673
  813ZrO2    ZO 2439   3.026   0.761   1.500
  814ZrO2    ZR 2440   3.138   0.902   1.598
  814ZrO2    ZO 2441   3.032   0.761   1.760
  814ZrO2    ZO 2442   3.066   1.015   1.933
  815ZrO2    ZR 2443   3.184   0.668   1.900
  815ZrO2    ZO 2444   3.256   0.555   1.565
  815ZrO2    ZO 2445   3.289   0.810   1.738
  816ZrO2    ZR 2446   3.401   0.668   1.640
  816ZrO2    ZO 2447   3.296   0.810   1.997
  816ZrO2    ZO 2448   3.329   0.555   1.824
  817ZrO2    ZR 2449   3.447   0.902   1.858
  817ZrO2    ZO 2450   3.519   1.015   1.673
  817ZrO2    ZO 2451   3.553   0.761   1.500
  818ZrO2    ZR 2452   3.664   0.902   1.598
  818ZrO2    ZO 2453   3.559   0.761   1.760
  818ZrO2    ZO 2454   3.593   1.015   1.933
  819ZrO2    ZR 2455   3.711   0.668   1.900
  819ZrO2    ZO 2456   3.783   0.555   1.565
  819ZrO2    ZO 2457   3.816   0.810   1.738
  820ZrO2    ZR 2458   3.928   0.668   1.640
  820ZrO2    ZO 2459   3.822   0.810   1.997
  820ZrO2    ZO 2460   3.856   0.555   1.824
  821ZrO2    ZR 2461   2.657   1.191   1.900
  821ZrO2    ZO 2462   2.729   1.079   1.565
  821ZrO2    ZO 2463   2.763   1.333   1.738
  822ZrO2    ZR 2464   2.874   1.191   1.640
  822ZrO2    ZO 2465   2.769   1.333   1.997
  822ZrO2    ZO 2466   2.803   1.079   1.824
  823ZrO2    ZR 2467   2.921   1.426   1.858
  823ZrO2    ZO 2468   2.992   1.538   1.673
  823ZrO2    ZO 2469   3.026   1.284   1.500
  824ZrO2    ZR 2470   3.138   1.426   1.598
  824ZrO2    ZO 2471   3.032   1.284   1.760
  824ZrO2    ZO 2472   3.066   1.538   1.933
  825ZrO2    ZR 2473   3.184   1.191   1.900
  825ZrO2    ZO 2474   3.256   1.079   1.565
  825ZrO2    ZO 2475   3.289   1.333   1.738
  826ZrO2    ZR 2476   3.401   1.191   1.640
  826ZrO2    ZO 2477   3.296   1.333   1.997
  826ZrO2    ZO 2478   3.329   1.079   1.824
  827ZrO2    ZR 2479   3.447   1.426   1.858
  827ZrO2    ZO 2480   3.519   1.538   1.673
  827ZrO2    ZO 2481   3.553   1.284   1.500
  828ZrO2    ZR 2482   3.664   1.426   1.598
  828ZrO2    ZO 2483   3.559   1.284   1.760
  828ZrO2    ZO 2484   3.593   1.538   1.933
  829ZrO2    ZR 2485   3.711   1.191   1.900
  829ZrO2    ZO 2486   3.783   1.079   1.565
  829ZrO2    ZO 2487   3.816   1.333   1.738
  830ZrO2    ZR 2488   3.928   1.191   1.640
  830ZrO2    ZO 2489   3.822   1.333   1.997
  830ZrO2    ZO 2490   3.856   1.079   1.824
  831ZrO2    ZR 2491   2.657   1.715   1.900
  831ZrO2    ZO 2492   2.729   1.602   1.565
  831ZrO2    ZO 2493   2.763   1.857   1.738
  832ZrO2    ZR 2494   2.874   1.715   1.640
  832ZrO2    ZO 2495   2.769   1.857   1.997
  832ZrO2    ZO 2496   2.803   1.602   1.824
  833ZrO2    ZR 2497   2.921   1.949   1.858
  833ZrO2    ZO 2498   2.992   2.062   1.673
  833ZrO2    ZO 2499   3.026   1.807   1.500
  834ZrO2    ZR 2500   3.138   1.949   1.598
  834ZrO2    ZO 2501   3.032   1.807   1.760
  834ZrO2    ZO 2502   3.066   2.062   1.933
  835ZrO2    ZR 2503   3.184   1.715   1.900
  835ZrO2    ZO 2504   3.256   1.602   1.565
  835ZrO2    ZO 2505   3.289   1.857   1.738
  836ZrO2    ZR 2506   3.401   1.715   1.640
  836ZrO2    ZO 2507   3.296   1.857   1.997
  836ZrO2    ZO 2508   3.329   1.602   1.824
  837ZrO2    ZR 2509   3.447   1.949   1.858
  837ZrO2    ZO 2510   3.519   2.062   1.673
  837ZrO2    ZO 2511   3.553   1.807   1.500
  838ZrO2    ZR 2512   3.664   1.949   1.598
  838ZrO2    ZO 2513   3.559   1.807   1.760
  838ZrO2    ZO 2514   3.593   2.062   1.933
  839ZrO2    ZR 2515   3.711   1.715   1.900
  839ZrO2    ZO 2516   3.783   1.602   1.565
  839ZrO2    ZO 2517   3.816   1.857   1.738
  840ZrO2    ZR 2518   3.928   1.715   1.640
  840ZrO2    ZO 2519   3.822   1.857   1.997
  840ZrO2    ZO 2520   3.856   1.602   1.824
  841ZrO2    ZR 2521   2.657   2.238   1.900
  841ZrO2    ZO 2522   2.729   2.125   1.565
  841ZrO2    ZO 2523   2.763   2.380   1.738
  842ZrO2    ZR 2524   2.874   2.238   1.640
  842ZrO2    ZO 2525   2.769   2.380   1.997
  842ZrO2    ZO 2526   2.803   2.125   1.824
  843ZrO2    ZR 2527   2.921   2.473   1.858
  843ZrO2    ZO 2528   2.992   2.585   1.673
  843ZrO2    ZO 2529   3.026   2.331   1.500
  844ZrO2    ZR 2530   3.138   2.473   1.598
  844ZrO2    ZO 2531   3.032   2.331   1.760
  844ZrO2    ZO 2532   3.066   2.585   1.933
  845ZrO2    ZR 2533   3.184   2.238   1.900
  845ZrO2    ZO 2534   3.256   2.125   1.565
  845ZrO2    ZO 2535   3.289   2.380   1.738
  846ZrO2    ZR 2536   3.401   2.238   1.640
  846ZrO2    ZO 2537   3.296   2.380   1.997
  846ZrO2    ZO 2538   3.329   2.125   1.824
  847ZrO2    ZR 2539   3.447   2.473   1.858
  847ZrO2    ZO 2540   3.519   2.585   1.673
  847ZrO2    ZO 2541   3.553   2.331   1.500
  848ZrO2    ZR 2542   3.664   2.473   1.598
  848ZrO2    ZO 2543   3.559   2.331   1.760
  848ZrO2    ZO 2544   3.593   2.585   1.933
  849ZrO2    ZR 2545   3.711   2.238   1.900
  849ZrO2    ZO 2546   3.783   2.125   1.565
  849ZrO2    ZO 2547   3.816   2.380   1.738
  850ZrO2    ZR 2548   3.928   2.238   1.640
  850ZrO2    ZO 2549   3.822   2.380   1.997
  850ZrO2    ZO 2550   3.856   2.125   1.824
  851ZrO2    ZR 2551   2.657   0.145   2.419
  851ZrO2    ZO 2552   2.729   0.032   2.084
  851ZrO2    ZO 2553   2.763   0.286   2.257
  852ZrO2    ZR 2554   2.874   0.145   2.159
  852ZrO2    ZO 2555   2.769   0.286   2.517
  852ZrO2    ZO 2556   2.803   0.032   2.344
  853ZrO2    ZR 2557   2.921   0.379   2.378
  853ZrO2    ZO 2558   2.992   0.491   2.193
  853ZrO2    ZO 2559   3.026   0.237   2.020
  854ZrO2    ZR 2560   3.138   0.379   2.118
  854ZrO2    ZO 2561   3.032   0.237   2.280
  854ZrO2    ZO 2562   3.066   0.491   2.453
  855ZrO2    ZR 2563   3.184   0.145   2.419
  855ZrO2    ZO 2564   3.256   0.032   2.084
  855ZrO2    ZO 2565   3.289   0.286   2.257
  856ZrO2    ZR 2566   3.401   0.145   2.159
  856ZrO2    ZO 2567   3.296   0.286   2.517
  856ZrO2    ZO 2568   3.329   0.032   2.344
  857ZrO2    ZR 2569   3.447   0.379   2.378
  857ZrO2    ZO 2570   3.519   0.491   2.193
  857ZrO2    ZO 2571   3.553   0.237   2.020
  858ZrO2    ZR 2572   3.664   0.379   2.118
  858ZrO2    ZO 2573   3.559   0.237   2.280
  858ZrO2    ZO 2574   3.593   0.491   2.453
  859ZrO2    ZR 2575   3.711   0.145   2.419
  859ZrO2    ZO 2576   3.783   0.032   2.084
  859ZrO2    ZO 2577   3.816   0.286   2.257
  860ZrO2    ZR 2578   3.928   0.145   2.159
  860ZrO2    ZO 2579   3.822   0.286   2.517
  860ZrO2    ZO 2580   3.856   0.032   2.344
  861ZrO2    ZR 2581   2.657   0.668   2.419
  861ZrO2    ZO 2582   2.729   0.555   2.084
  861ZrO2    ZO 2583   2.763   0.810   2.257
  862ZrO2    ZR 2584   2.874   0.668   2.159
  862ZrO2    ZO 2585   2.769   0.810   2.517
  862ZrO2    ZO 2586   2.803   0.555   2.344
  863ZrO2    ZR 2587   2.921   0.902   2.378
  863ZrO2    ZO 2588   2.992   1.015   2.193
  863ZrO2    ZO 2589   3.026   0.761   2.020
  864ZrO2    ZR 2590   3.138   0.902   2.118
  864ZrO2    ZO 2591   3.032   0.761   2.280
  864ZrO2    ZO 2592   3.066   1.015   2.453
  865ZrO2    ZR 2593   3.184   0.668   2.419
  865ZrO2    ZO 2594   3.256   0.555   2.084
  865ZrO2    ZO 2595   3.289   0.810   2.257
  866ZrO2    ZR 2596   3.401   0.668   2.159
  866ZrO2    ZO 2597   3.296   0.810   2.517
  866ZrO2    ZO 2598   3.329   0.555   2.344
  867ZrO2    ZR 2599   3.447   0.902   2.378
  867ZrO2    ZO 2600   3.519   1.015   2.193
  867ZrO2    ZO 2601   3.553   0.761   2.020
  868ZrO2    ZR 2602   3.664   0.902   2.118
  868ZrO2    ZO 2603   3.559   0.761   2.280
  868ZrO2    ZO 2604   3.593   1.015   2.453
  869ZrO2    ZR 2605   3.711   0.668   2.419
  869ZrO2    ZO 2606   3.783   0.555   2.084
  869ZrO2    ZO 2607   3.816   0.810   2.257
  870ZrO2    ZR 2608   3.928   0.668   2.159
  870ZrO2    ZO 2609   3.822   0.810   2.517
  870ZrO2    ZO 2610   3.856   0.555   2.344
  871ZrO2    ZR 2611   2.657   1.191   2.419
  871ZrO2    ZO 2612   2.729   1.079   2.084
  871ZrO2    ZO 2613   2.763   1.333   2.257
  872ZrO2    ZR 2614   2.874   1.191   2.159
  872ZrO2    ZO 2615   2.769   1.333   2.517
  872ZrO2    ZO 2616   2.803   1.079   2.344
  873ZrO2    ZR 2617   2.921   1.426   2.378
  873ZrO2    ZO 2618   2.992   1.538   2.193
  873ZrO2    ZO 2619   3.026   1.284   2.020
  874ZrO2    ZR 2620   3.138   1.426   2.118
  874ZrO2    ZO 2621   3.032   1.284   2.280
  874ZrO2    ZO 2622   3.066   1.538   2.453
  875ZrO2    ZR 2623   3.184   1.191   2.419
  875ZrO2    ZO 2624   3.256   1.079   2.084
  875ZrO2    ZO 2625   3.289   1.333   2.257
  876ZrO2    ZR 2626   3.401   1.191   2.159
  876ZrO2    ZO 2627   3.296   1.333   2.517
  876ZrO2    ZO 2628   3.329   1.079   2.344
  877ZrO2    ZR 2629   3.447   1.426   2.378
  877ZrO2    ZO 2630   3.519   1.538   2.193
  877ZrO2    ZO 2631   3.553   1.284   2.020
  878ZrO2    ZR 2632   3.664   1.426   2.118
  878ZrO2    ZO 2633   3.559   1.284   2.280
  878ZrO2    ZO 2634   3.593   1.538   2.453
  879ZrO2    ZR 2635   3.711   1.191   2.419
  879ZrO2    ZO 2636   3.783   1.079   2.084
  879ZrO2    ZO 2637   3.816   1.333   2.257
  880ZrO2    ZR 2638   3.928   1.191   2.159
  880ZrO2    ZO 2639   3.822   1.333   2.517
  880ZrO2    ZO 2640   3.856   1.079   2.344
  881ZrO2    ZR 2641   2.657   1.715   2.419
  881ZrO2    ZO 2642   2.729   1.602   2.084
  881ZrO2    ZO 2643   2.763   1.857   2.257
  882ZrO2    ZR 2644   2.874   1.715   2.159
  882ZrO2    ZO 2645   2.769   1.857   2.517
  882ZrO2    ZO 2646   2.803   1.602   2.344
  883ZrO2    ZR 2647   2.921   1.949   2.378
  883ZrO2    ZO 2648   2.992   2.062   2.193
  883ZrO2    ZO 2649   3.026   1.807   2.020
  884ZrO2    ZR 2650   3.138   1.949   2.118
  884ZrO2    ZO 2651   3.032   1.807   2.280
  884ZrO2    ZO 2652   3.066   2.062   2.453
  885ZrO2    ZR 2653   3.184   1.715   2.419
  885ZrO2    ZO 2654   3.256   1.602   2.084
  885ZrO2    ZO 2655   3.289   1.857   2.257
  886ZrO2    ZR 2656   3.401   1.715   2.159
  886ZrO2    ZO 2657   3.296   1.857   2.517
  886ZrO2    ZO 2658   3.329   1.602   2.344
  887ZrO2    ZR 2659   3.447   1.949   2.378
  887ZrO2    ZO 2660   3.519   2.062   2.193
  887ZrO2    ZO 2661   3.553   1.807   2.020
  888ZrO2    ZR 2662   3.664   1.949   2.118
  888ZrO2    ZO 2663   3.559   1.807   2.280
  888ZrO2    ZO 2664   3.593   2.062   2.453
  889ZrO2    ZR 2665   3.711   1.715   2.419
  889ZrO2    ZO 2666   3.783   1.602   2.084
  889ZrO2    ZO 2667   3.816   1.857   2.257
  890ZrO2    ZR 2668   3.928   1.715   2.159
  890ZrO2    ZO 2669   3.822   1.857   2.517
  890ZrO2    ZO 2670   3.856   1.602   2.344
  891ZrO2    ZR 2671   2.657   2.238   2.419
  891ZrO2    ZO 2672   2.729   2.125   2.084
  891ZrO2    ZO 2673   2.763   2.380   2.257
  892ZrO2    ZR 2674   2.874   2.238   2.159
  892ZrO2    ZO 2675   2.769   2.380   2.517
  892ZrO2    ZO 2676   2.803   2.125   2.344
  893ZrO2    ZR 2677   2.921   2.473   2.378
  893ZrO2    ZO 2678   2.992   2.585   2.193
  893ZrO2    ZO 2679   3.026   2.331   2.020
  894ZrO2    ZR 2680   3.138   2.473   2.118
  894ZrO2    ZO 2681   3.032   2.331   2.280
  894ZrO2    ZO 2682   3.066   2.585   2.453
  895ZrO2    ZR 2683   3.184   2.238   2.419
  895ZrO2    ZO 2684   3.256   2.125   2.084
  895ZrO2    ZO 2685   3.289   2.380   2.257
  896ZrO2    ZR 2686   3.401   2.238   2.159
  896ZrO2    ZO 2687   3.296   2.380   2.517
  896ZrO2    ZO 2688   3.329   2.125   2.344
  897ZrO2    ZR 2689   3.447   2.473   2.378
  897ZrO2    ZO 2690   3.519   2.585   2.193
  897ZrO2    ZO 2691   3.553   2.331   2.020
  898ZrO2    ZR 2692   3.664   2.473   2.118
  898ZrO2    ZO 2693   3.559   2.331   2.280
  898ZrO2    ZO 2694   3.593   2.585   2.453
  899ZrO2    ZR 2695   3.711   2.238   2.419
  899ZrO2    ZO 2696   3.783   2.125   2.084
  899ZrO2    ZO 2697   3.816   2.380   2.257
  900ZrO2    ZR 2698   3.928   2.238   2.159
  900ZrO2    ZO 2699   3.822   2.380   2.517
  900ZrO2    ZO 2700   3.856   2.125   2.344
  901ZrO2    ZR 2701   2.657   0.145   2.939
  901ZrO2    ZO 2702   2.729   0.032   2.604
  901ZrO2    ZO 2703   2.763   0.286   2.777
  902ZrO2    ZR 2704   2.874   0.145   2.679
  902ZrO2    ZO 2705   2.769   0.286   3.037
  902ZrO2    ZO 2706   2.803   0.032   2.864
  903ZrO2    ZR 2707   2.921   0.379   2.898
  903ZrO2    ZO 2708   2.992   0.491   2.713
  903ZrO2    ZO 2709   3.026   0.237   2.540
  904ZrO2    ZR 2710   3.138   0.379   2.638
  904ZrO2    ZO 2711   3.032   0.237   2.800
  904ZrO2    ZO 2712   3.066   0.491   2.973
  905ZrO2    ZR 2713   3.184   0.145   2.939
  905ZrO2    ZO 2714   3.256   0.032   2.604
  905ZrO2    ZO 2715   3.289   0.286   2.777
  906ZrO2    ZR 2716   3.401   0.145   2.679
  906ZrO2    ZO 2717   3.296   0.286   3.037
  906ZrO2    ZO 2718   3.329   0.032   2.864
  907ZrO2    ZR 2719   3.447   0.379   2.898
  907ZrO2    ZO 2720   3.519   0.491   2.713
  907ZrO2    ZO 2721   3.553   0.237   2.540
  908ZrO2    ZR 2722   3.664   0.379   2.638
  908ZrO2    ZO 2723   3.559   0.237   2.800
  908ZrO2    ZO 2724   3.593   0.491   2.973
  909ZrO2    ZR 2725   3.711   0.145   2.939
  909ZrO2    ZO 2726   3.783   0.032   2.604
  909ZrO2    ZO 2727   3.816   0.286   2.777
  910ZrO2    ZR 2728   3.928   0.145   2.679
  910ZrO2    ZO 2729   3.822   0.286   3.037
  910ZrO2    ZO 2730   3.856   0.032   2.864
  911ZrO2    ZR 2731   2.657   0.668   2.939
  911ZrO2    ZO 2732   2.729   0.555   2.604
  911ZrO2    ZO 2733   2.763   0.810   2.777
  912ZrO2    ZR 2734   2.874   0.668   2.679
  912ZrO2    ZO 2735   2.769   0.810   3.037
  912ZrO2    ZO 2736   2.803   0.555   2.864
  913ZrO2    ZR 2737   2.921   0.902   2.898
  913ZrO2    ZO 2738   2.992   1.015   2.713
  913ZrO2    ZO 2739   3.026   0.761   2.540
  914ZrO2    ZR 2740   3.138   0.902   2.638
  914ZrO2    ZO 2741   3.032   0.761   2.800
  914ZrO2    ZO 2742   3.066   1.015   2.973
  915ZrO2    ZR 2743   3.184   0.668   2.939
  915ZrO2    ZO 2744   3.256   0.555   2.604
  915ZrO2    ZO 2745   3.289   0.810   2.777
  916ZrO2    ZR 2746   3.401   0.668   2.679
  916ZrO2    ZO 2747   3.296   0.810   3.037
  916ZrO2    ZO 2748   3.329   0.555   2.864
  917ZrO2    ZR 2749   3.447   0.902   2.898
  917ZrO2    ZO 2750   3.519   1.015   2.713
  917ZrO2    ZO 2751   3.553   0.761   2.540
  918ZrO2    ZR 2752   3.664   0.902   2.638
  918ZrO2    ZO 2753   3.559   0.761   2.800
  918ZrO2    ZO 2754   3.593   1.015   2.973
  919ZrO2    ZR 2755   3.711   0.668   2.939
  919ZrO2    ZO 2756   3.783   0.555   2.604
  919ZrO2    ZO 2757   3.816   0.810   2.777
  920ZrO2    ZR 2758   3.928   0.668   2.679
  920ZrO2    ZO 2759   3.822   0.810   3.037
  920ZrO2    ZO 2760   3.856   0.555   2.864
  921ZrO2    ZR 2761   2.657   1.191   2.939
  921ZrO2    ZO 2762   2.729   1.079   2.604
  921ZrO2    ZO 2763   2.763   1.333   2.777
  922ZrO2    ZR 2764   2.874   1.191   2.679
  922ZrO2    ZO 2765   2.769   1.333   3.037
  922ZrO2    ZO 2766   2.803   1.079   2.864
  923ZrO2    ZR 2767   2.921   1.426   2.898
  923ZrO2    ZO 2768   2.992   1.538   2.713
  923ZrO2    ZO 2769   3.026   1.284   2.540
  924ZrO2    ZR 2770   3.138   1.426   2.638
  924ZrO2    ZO 2771   3.032   1.284   2.800
  924ZrO2    ZO 2772   3.066   1.538   2.973
  925ZrO2    ZR 2773   3.184   1.191   2.939
  925ZrO2    ZO 2774   3.256   1.079   2.604
  925ZrO2    ZO 2775   3.289   1.333   2.777
  926ZrO2    ZR 2776   3.401   1.191   2.679
  926ZrO2    ZO 2777   3.296   1.333   3.037
  926ZrO2    ZO 2778   3.329   1.079   2.864
  927ZrO2    ZR 2779   3.447   1.426   2.898
  927ZrO2    ZO 2780   3.519   1.538   2.713
  927ZrO2    ZO 2781   3.553   1.284   2.540
  928ZrO2    ZR 2782   3.664   1.426   2.638
  928ZrO2    ZO 2783   3.559   1.284   2.800
  928ZrO2    ZO 2784   3.593   1.538   2.973
  929ZrO2    ZR 2785   3.711   1.191   2.939
  929ZrO2    ZO 2786   3.783   1.079   2.604
  929ZrO2    ZO 2787   3.816   1.333   2.777
  930ZrO2    ZR 2788   3.928   1.191   2.679
  930ZrO2    ZO 2789   3.822   1.333   3.037
  930ZrO2    ZO 2790   3.856   1.079   2.864
  931ZrO2    ZR 2791   2.657   1.715   2.939
  931ZrO2    ZO 2792   2.729   1.602   2.604
  931ZrO2    ZO 2793   2.763   1.857   2.777
  932ZrO2    ZR 2794   2.874   1.715   2.679
  932ZrO2    ZO 2795   2.769   1.857   3.037
  932ZrO2    ZO 2796   2.803   1.602   2.864
  933ZrO2    ZR 2797   2.921   1.949   2.898
  933ZrO2    ZO 2798   2.992   2.062   2.713
  933ZrO2    ZO 2799   3.026   1.807   2.540
  934ZrO2    ZR 2800   3.138   1.949   2.638
  934ZrO2    ZO 2801   3.032   1.807   2.800
  934ZrO2    ZO 2802   3.066   2.062   2.973
  935ZrO2    ZR 2803   3.184   1.715   2.939
  935ZrO2    ZO 2804   3.256   1.602   2.604
  935ZrO2    ZO 2805   3.289   1.857   2.777
  936ZrO2    ZR 2806   3.401   1.715   2.679
  936ZrO2    ZO 2807   3.296   1.857   3.037
  936ZrO2    ZO 2808   3.329   1.602   2.864
  937ZrO2    ZR 2809   3.447   1.949   2.898
  937ZrO2    ZO 2810   3.519   2.062   2.713
  937ZrO2    ZO 2811   3.553   1.807   2.540
  938ZrO2    ZR 2812   3.664   1.949   2.638
  938ZrO2    ZO 2813   3.559   1.807   2.800
  938ZrO2    ZO 2814   3.593   2.062   2.973
  939ZrO2    ZR 2815   3.711   1.715   2.939
  939ZrO2    ZO 2816   3.783   1.602   2.604
  939ZrO2    ZO 2817   3.816   1.857   2.777
  940ZrO2    ZR 2818   3.928   1.715   2.679
  940ZrO2    ZO 2819   3.822   1.857   3.037
  940ZrO2    ZO 2820   3.856   1.602   2.864
  941ZrO2    ZR 2821   2.657   2.238   2.939
  941ZrO2    ZO 2822   2.729   2.125   2.604
  941ZrO2    ZO 2823   2.763   2.380   2.777
  942ZrO2    ZR 2824   2.874   2.238   2.679
  942ZrO2    ZO 2825   2.769   2.380   3.037
  942ZrO2    ZO 2826   2.803   2.125   2.864
  943ZrO2    ZR 2827   2.921   2.473   2.898
  943ZrO2    ZO 2828   2.992   2.585   2.713
  943ZrO2    ZO 2829   3.026   2.331   2.540
  944ZrO2    ZR 2830   3.138   2.473   2.638
  944ZrO2    ZO 2831   3.032   2.331   2.800
  944ZrO2    ZO 2832   3.066   2.585   2.973
  945ZrO2    ZR 2833   3.184   2.238   2.939
  945ZrO2    ZO 2834   3.256   2.125   2.604
  945ZrO2    ZO 2835   3.289   2.380   2.777
  946ZrO2    ZR 2836   3.401   2.238   2.679
  946ZrO2    ZO 2837   3.296   2.380   3.037
  946ZrO2    ZO 2838   3.329   2.125   2.864
  947ZrO2    ZR 2839   3.447   2.473   2.898
  947ZrO2    ZO 2840   3.519   2.585   2.713
  947ZrO2    ZO 2841   3.553   2.331   2.540
  948ZrO2    ZR 2842   3.664   2.473   2.638
  948ZrO2    ZO 2843   3.559   2.331   2.800
  948ZrO2    ZO 2844   3.593   2.585   2.973
  949ZrO2    ZR 2845   3.711   2.238   2.939
  949ZrO2    ZO 2846   3.783   2.125   2.604
  949ZrO2    ZO 2847   3.816   2.380   2.777
  950ZrO2    ZR 2848   3.928   2.238   2.679
  950ZrO2    ZO 2849   3.822   2.380   3.037
  950ZrO2    ZO 2850   3.856   2.125   2.864
  951ZrO2    ZR 2851   2.657   0.145   3.459
  951ZrO2    ZO 2852   2.729   0.032   3.124
  951ZrO2    ZO 2853   2.763   0.286   3.297
  952ZrO2    ZR 2854   2.874   0.145   3.199
  952ZrO2    ZO 2855   2.769   0.286   3.557
  952ZrO2    ZO 2856   2.803   0.032   3.384
  953ZrO2    ZR 2857   2.921   0.379   3.417
  953ZrO2    ZO 2858   2.992   0.491   3.232
  953ZrO2    ZO 2859   3.026   0.237   3.059
  954ZrO2    ZR 2860   3.138   0.379   3.158
  954ZrO2    ZO 2861   3.032   0.237   3.319
  954ZrO2    ZO 2862   3.066   0.491   3.492
  955ZrO2    ZR 2863   3.184   0.145   3.459
  955ZrO2    ZO 2864   3.256   0.032   3.124
  955ZrO2    ZO 2865   3.289   0.286   3.297
  956ZrO2    ZR 2866   3.401   0.145   3.199
  956ZrO2    ZO 2867   3.296   0.286   3.557
  956ZrO2    ZO 2868   3.329   0.032   3.384
  957ZrO2    ZR 2869   3.447   0.379   3.417
  957ZrO2    ZO 2870   3.519   0.491   3.232
  957ZrO2    ZO 2871   3.553   0.237   3.059
  958ZrO2    ZR 2872   3.664   0.379   3.158
  958ZrO2    ZO 2873   3.559   0.237   3.319
  958ZrO2    ZO 2874   3.593   0.491   3.492
  959ZrO2    ZR 2875   3.711   0.145   3.459
  959ZrO2    ZO 2876   3.783   0.032   3.124
  959ZrO2    ZO 2877   3.816   0.286   3.297
  960ZrO2    ZR 2878   3.928   0.145   3.199
  960ZrO2    ZO 2879   3.822   0.286   3.557
  960ZrO2    ZO 2880   3.856   0.032   3.384
  961ZrO2    ZR 2881   2.657   0.668   3.459
  961ZrO2    ZO 2882   2.729   0.555   3.124
  961ZrO2    ZO 2883   2.763   0.810   3.297
  962ZrO2    ZR 2884   2.874   0.668   3.199
  962ZrO2    ZO 2885   2.769   0.810   3.557
  962ZrO2    ZO 2886   2.803   0.555   3.384
  963ZrO2    ZR 2887   2.921   0.902   3.417
  963ZrO2    ZO 2888   2.992   1.015   3.232
  963ZrO2    ZO 2889   3.026   0.761   3.059
  964ZrO2    ZR 2890   3.138   0.902   3.158
  964ZrO2    ZO 2891   3.032   0.761   3.319
  964ZrO2    ZO 2892   3.066   1.015   3.492
  965ZrO2    ZR 2893   3.184   0.668   3.459
  965ZrO2    ZO 2894   3.256   0.555   3.124
  965ZrO2    ZO 2895   3.289   0.810   3.297
  966ZrO2    ZR 2896   3.401   0.668   3.199
  966ZrO2    ZO 2897   3.296   0.810   3.557
  966ZrO2    ZO 2898   3.329   0.555   3.384
  967ZrO2    ZR 2899   3.447   0.902   3.417
  967ZrO2    ZO 2900   3.519   1.015   3.232
  967ZrO2    ZO 2901   3.553   0.761   3.059
  968ZrO2    ZR 2902   3.664   0.902   3.158
  968ZrO2    ZO 2903   3.559   0.761   3.319
  968ZrO2    ZO 2904   3.593   1.015   3.492
  969ZrO2    ZR 2905   3.711   0.668   3.459
  969ZrO2    ZO 2906   3.783   0.555   3.124
  969ZrO2    ZO 2907   3.816   0.810   3.297
  970ZrO2    ZR 2908   3.928   0.668   3.199
  970ZrO2    ZO 2909   3.822   0.810   3.557
  970ZrO2    ZO 2910   3.856   0.555   3.384
  971ZrO2    ZR 2911   2.657   1.191   3.459
  971ZrO2    ZO 2912   2.729   1.079   3.124
  971ZrO2    ZO 2913   2.763   1.333   3.297
  972ZrO2    ZR 2914   2.874   1.191   3.199
  972ZrO2    ZO 2915   2.769   1.333   3.557
  972ZrO2    ZO 2916   2.803   1.079   3.384
  973ZrO2    ZR 2917   2.921   1.426   3.417
  973ZrO2    ZO 2918   2.992   1.538   3.232
  973ZrO2    ZO 2919   3.026   1.284   3.059
  974ZrO2    ZR 2920   3.138   1.426   3.158
  974ZrO2    ZO 2921   3.032   1.284   3.319
  974ZrO2    ZO 2922   3.066   1.538   3.492
  975ZrO2    ZR 2923   3.184   1.191   3.459
  975ZrO2    ZO 2924   3.256   1.079   3.124
  975ZrO2    ZO 2925   3.289   1.333   3.297
  976ZrO2    ZR 2926   3.401   1.191   3.199
  976ZrO2    ZO 2927   3.296   1.333   3.557
  976ZrO2    ZO 2928   3.329   1.079   3.384
  977ZrO2    ZR 2929   3.447   1.426   3.417
  977ZrO2    ZO 2930   3.519   1.538   3.232
  977ZrO2    ZO 2931   3.553   1.284   3.059
  978ZrO2    ZR 2932   3.664   1.426   3.158
  978ZrO2    ZO 2933   3.559   1.284   3.319
  978ZrO2    ZO 2934   3.593   1.538   3.492
  979ZrO2    ZR 2935   3.711   1.191   3.459
  979ZrO2    ZO 2936   3.783   1.079   3.124
  979ZrO2    ZO 2937   3.816   1.333   3.297
  980ZrO2    ZR 2938   3.928   1.191   3.199
  980ZrO2    ZO 2939   3.822   1.333   3.557
  980ZrO2    ZO 2940   3.856   1.079   3.384
  981ZrO2    ZR 2941   2.657   1.715   3.459
  981ZrO2    ZO 2942   2.729   1.602   3.124
  981ZrO2    ZO 2943   2.763   1.857   3.297
  982ZrO2    ZR 2944   2.874   1.715   3.199
  982ZrO2    ZO 2945   2.769   1.857   3.557
  982ZrO2    ZO 2946   2.803   1.602   3.384
  983ZrO2    ZR 2947   2.921   1.949   3.417
  983ZrO2    ZO 2948   2.992   2.062   3.232
  983ZrO2    ZO 2949   3.026   1.807   3.059
  984ZrO2    ZR 2950   3.138   1.949   3.158
  984ZrO2    ZO 2951   3.032   1.807   3.319
  984ZrO2    ZO 2952   3.066   2.062   3.492
  985ZrO2    ZR 2953   3.184   1.715   3.459
  985ZrO2    ZO 2954   3.256   1.602   3.124
  985ZrO2    ZO 2955   3.289   1.857   3.297
  986ZrO2    ZR 2956   3.401   1.715   3.199
  986ZrO2    ZO 2957   3.296   1.857   3.557
  986ZrO2    ZO 2958   3.329   1.602   3.384
  987ZrO2    ZR 2959   3.447   1.949   3.417
  987ZrO2    ZO 2960   3.519   2.062   3.232
  987ZrO2    ZO 2961   3.553   1.807   3.059
  988ZrO2    ZR 2962   3.664   1.949   3.158
  988ZrO2    ZO 2963   3.559   1.807   3.319
  988ZrO2    ZO 2964   3.593   2.062   3.492
  989ZrO2    ZR 2965   3.711   1.715   3.459
  989ZrO2    ZO 2966   3.783   1.602   3.124
  989ZrO2    ZO 2967   3.816   1.857   3.297
  990ZrO2    ZR 2968   3.928   1.715   3.199
  990ZrO2    ZO 2969   3.822   1.857   3.557
  990ZrO2    ZO 2970   3.856   1.602   3.384
  991ZrO2    ZR 2971   2.657   2.238   3.459
  991ZrO2    ZO 2972   2.729   2.125   3.124
  991ZrO2    ZO 2973   2.763   2.380   3.297
  992ZrO2    ZR 2974   2.874   2.238   3.199
  992ZrO2    ZO 2975   2.769   2.380   3.557
  992ZrO2    ZO 2976   2.803   2.125   3.384
  993ZrO2    ZR 2977   2.921   2.473   3.417
  993ZrO2    ZO 2978   2.992   2.585   3.232
  993ZrO2    ZO 2979   3.026   2.331   3.059
  994ZrO2    ZR 2980   3.138   2.473   3.158
  994ZrO2    ZO 2981   3.032   2.331   3.319
  994ZrO2    ZO 2982   3.066   2.585   3.492
  995ZrO2    ZR 2983   3.184   2.238   3.459
  995ZrO2    ZO 2984   3.256   2.125   3.124
  995ZrO2    ZO 2985   3.289   2.380   3.297
  996ZrO2    ZR 2986   3.401   2.238   3.199
  996ZrO2    ZO 2987   3.296   2.380   3.557
  996ZrO2    ZO 2988   3.329   2.125   3.384
  997ZrO2    ZR 2989   3.447   2.473   3.417
  997ZrO2    ZO 2990   3.519   2.585   3.232
  997ZrO2    ZO 2991   3.553   2.331   3.059
  998ZrO2    ZR 2992   3.664   2.473   3.158
  998ZrO2    ZO 2993   3.559   2.331   3.319
  998ZrO2    ZO 2994   3.593   2.585   3.492
  999ZrO2    ZR 2995   3.711   2.238   3.459
  999ZrO2    ZO 2996   3.783   2.125   3.124
  999ZrO2    ZO 2997   3.816   2.380   3.297
 1000ZrO2    ZR 2998   3.928   2.238   3.199
 1000ZrO2    ZO 2999   3.822   2.380   3.557
 1000ZrO2    ZO 3000   3.856   2.125   3.384
 1001ZrO2    ZR 3001   2.657   2.761   1.900
 1001ZrO2    ZO 3002   2.729   2.649   1.565
 1001ZrO2    ZO 3003   2.763   2.903   1.738
 1002ZrO2    ZR 3004   2.874   2.761   1.640
 1002ZrO2    ZO 3005   2.769   2.903   1.997
 1002ZrO2    ZO 3006   2.803   2.649   1.824
 1003ZrO2    ZR 3007   2.921   2.996   1.858
 1003ZrO2    ZO 3008   2.992   3.109   1.673
 1003ZrO2    ZO 3009   3.026   2.854   1.500
 1004ZrO2    ZR 3010   3.138   2.996   1.598
 1004ZrO2    ZO 3011   3.032   2.854   1.760
 1004ZrO2    ZO 3012   3.066   3.109   1.933
 1005ZrO2    ZR 3013   3.184   2.761   1.900
 1005ZrO2    ZO 3014   3.256   2.649   1.565
 1005ZrO2    ZO 3015   3.289   2.903   1.738
 1006ZrO2    ZR 3016   3.401   2.761   1.640
 1006ZrO2    ZO 3017   3.296   2.903   1.997
 1006ZrO2    ZO 3018   3.329   2.649   1.824
 1007ZrO2    ZR 3019   3.447   2.996   1.858
 1007ZrO2    ZO 3020   3.519   3.109   1.673
 1007ZrO2    ZO 3021   3.553   2.854   1.500
 1008ZrO2    ZR 3022   3.664   2.996   1.598
 1008ZrO2    ZO 3023   3.559   2.854   1.760
 1008ZrO2    ZO 3024   3.593   3.109   1.933
 1009ZrO2    ZR 3025   3.711   2.761   1.900
 1009ZrO2    ZO 3026   3.783   2.649   1.565
 1009ZrO2    ZO 3027   3.816   2.903   1.738
 1010ZrO2    ZR 3028   3.928   2.761   1.640
 1010ZrO2    ZO 3029   3.822   2.903   1.997
 1010ZrO2    ZO 3030   3.856   2.649   1.824
 1011ZrO2    ZR 3031   2.657   3.285   1.900
 1011ZrO2    ZO 3032   2.729   3.172   1.565
 1011ZrO2    ZO 3033   2.763   3.427   1.738
 1012ZrO2    ZR 3034   2.874   3.285   1.640
 1012ZrO2    ZO 3035   2.769   3.427   1.997
 1012ZrO2    ZO 3036   2.803   3.172   1.824
 1013ZrO2    ZR 3037   2.921   3.519   1.858
 1013ZrO2    ZO 3038   2.992   3.632   1.673
 1013ZrO2    ZO 3039   3.026   3.378   1.500
 1014ZrO2    ZR 3040   3.138   3.519   1.598
 1014ZrO2    ZO 3041   3.032   3.378   1.760
 1014ZrO2    ZO 3042   3.066   3.632   1.933
 1015ZrO2    ZR 3043   3.184   3.285   1.900
 1015ZrO2    ZO 3044   3.256   3.172   1.565
 1015ZrO2    ZO 3045   3.289   3.427   1.738
 1016ZrO2    ZR 3046   3.401   3.285   1.640
 1016ZrO2    ZO 3047   3.296   3.427   1.997
 1016ZrO2    ZO 3048   3.329   3.172   1.824
 1017ZrO2    ZR 3049   3.447   3.519   1.858
 1017ZrO2    ZO 3050   3.519   3.632   1.673
 1017ZrO2    ZO 3051   3.553   3.378   1.500
 1018ZrO2    ZR 3052   3.664   3.519   1.598
 1018ZrO2    ZO 3053   3.559   3.378   1.760
 1018ZrO2    ZO 3054   3.593   3.632   1.933
 1019ZrO2    ZR 3055   3.711   3.285   1.900
 1019ZrO2    ZO 3056   3.783   3.172   1.565
 1019ZrO2    ZO 3057   3.816   3.427   1.738
 1020ZrO2    ZR 3058   3.928   3.285   1.640
 1020ZrO2    ZO 3059   3.822   3.427   1.997
 1020ZrO2    ZO 3060   3.856   3.172   1.824
 1021ZrO2    ZR 3061   2.657   3.808   1.900
 1021ZrO2    ZO 3062   2.729   3.696   1.565
 1021ZrO2    ZO 3063   2.763   3.950   1.738
 1022ZrO2    ZR 3064   2.874   3.808   1.640
 1022ZrO2    ZO 3065   2.769   3.950   1.997
 1022ZrO2    ZO 3066   2.803   3.696   1.824
 1023ZrO2    ZR 3067   2.921   4.043   1.858
 1023ZrO2    ZO 3068   2.992   4.155   1.673
 1023ZrO2    ZO 3069   3.026   3.901   1.500
 1024ZrO2    ZR 3070   3.138   4.043   1.598
 1024ZrO2    ZO 3071   3.032   3.901   1.760
 1024ZrO2    ZO 3072   3.066   4.155   1.933
 1025ZrO2    ZR 3073   3.184   3.808   1.900
 1025ZrO2    ZO 3074   3.256   3.696   1.565
 1025ZrO2    ZO 3075   3.289   3.950   1.738
 1026ZrO2    ZR 3076   3.401   3.808   1.640
 1026ZrO2    ZO 3077   3.296   3.950   1.997
 1026ZrO2    ZO 3078   3.329   3.696   1.824
 1027ZrO2    ZR 3079   3.447   4.043   1.858
 1027ZrO2    ZO 3080   3.519   4.155   1.673
 1027ZrO2    ZO 3081   3.553   3.901   1.500
 1028ZrO2    ZR 3082   3.664   4.043   1.598
 1028ZrO2    ZO 3083   3.559   3.901   1.760
 1028ZrO2    ZO 3084   3.593   4.155   1.933
 1029ZrO2    ZR 3085   3.711   3.808   1.900
 1029ZrO2    ZO 3086   3.783   3.696   1.565
 1029ZrO2    ZO 3087   3.816   3.950   1.738
 1030ZrO2    ZR 3088   3.928   3.808   1.640
 1030ZrO2    ZO 3089   3.822   3.950   1.997
 1030ZrO2    ZO 3090   3.856   3.696   1.824
 1031ZrO2    ZR 3091   2.657   4.332   1.900
 1031ZrO2    ZO 3092   2.729   4.219   1.565
 1031ZrO2    ZO 3093   2.763   4.473   1.738
 1032ZrO2    ZR 3094   2.874   4.332   1.640
 1032ZrO2    ZO 3095   2.769   4.473   1.997
 1032ZrO2    ZO 3096   2.803   4.219   1.824
 1033ZrO2    ZR 3097   2.921   4.566   1.858
 1033ZrO2    ZO 3098   2.992   4.679   1.673
 1033ZrO2    ZO 3099   3.026   4.424   1.500
 1034ZrO2    ZR 3100   3.138   4.566   1.598
 1034ZrO2    ZO 3101   3.032   4.424   1.760
 1034ZrO2    ZO 3102   3.066   4.679   1.933
 1035ZrO2    ZR 3103   3.184   4.332   1.900
 1035ZrO2    ZO 3104   3.256   4.219   1.565
 1035ZrO2    ZO 3105   3.289   4.473   1.738
 1036ZrO2    ZR 3106   3.401   4.332   1.640
 1036ZrO2    ZO 3107   3.296   4.473   1.997
 1036ZrO2    ZO 3108   3.329   4.219   1.824
 1037ZrO2    ZR 3109   3.447   4.566   1.858
 1037ZrO2    ZO 3110   3.519   4.679   1.673
 1037ZrO2    ZO 3111   3.553   4.424   1.500
 1038ZrO2    ZR 3112   3.664   4.566   1.598
 1038ZrO2    ZO 3113   3.559   4.424   1.760
 1038ZrO2    ZO 3114   3.593   4.679   1.933
 1039ZrO2    ZR 3115   3.711   4.332   1.900
 1039ZrO2    ZO 3116   3.783   4.219   1.565
 1039ZrO2    ZO 3117   3.816   4.473   1.738
 1040ZrO2    ZR 3118   3.928   4.332   1.640
 1040ZrO2    ZO 3119   3.822   4.473   1.997
 1040ZrO2    ZO 3120   3.856   4.219   1.824
 1041ZrO2    ZR 3121   2.657   4.855   1.900
 1041ZrO2    ZO 3122   2.729   4.742   1.565
 1041ZrO2    ZO 3123   2.763   4.997   1.738
 1042ZrO2    ZR 3124   2.874   4.855   1.640
 1042ZrO2    ZO 3125   2.769   4.997   1.997
 1042ZrO2    ZO 3126   2.803   4.742   1.824
 1043ZrO2    ZR 3127   2.921   5.089   1.858
 1043ZrO2    ZO 3128   2.992   5.202   1.673
 1043ZrO2    ZO 3129   3.026   4.948   1.500
 1044ZrO2    ZR 3130   3.138   5.089   1.598
 1044ZrO2    ZO 3131   3.032   4.948   1.760
 1044ZrO2    ZO 3132   3.066   5.202   1.933
 1045ZrO2    ZR 3133   3.184   4.855   1.900
 1045ZrO2    ZO 3134   3.256   4.742   1.565
 1045ZrO2    ZO 3135   3.289   4.997   1.738
 1046ZrO2    ZR 3136   3.401   4.855   1.640
 1046ZrO2    ZO 3137   3.296   4.997   1.997
 1046ZrO2    ZO 3138   3.329   4.742   1.824
 1047ZrO2    ZR 3139   3.447   5.089   1.858
 1047ZrO2    ZO 3140   3.519   5.202   1.673
 1047ZrO2    ZO 3141   3.553   4.948   1.500
 1048ZrO2    ZR 3142   3.664   5.089   1.598
 1048ZrO2    ZO 3143   3.559   4.948   1.760
 1048ZrO2    ZO 3144   3.593   5.202   1.933
 1049ZrO2    ZR 3145   3.711   4.855   1.900
 1049ZrO2    ZO 3146   3.783   4.742   1.565
 1049ZrO2    ZO 3147   3.816   4.997   1.738
 1050ZrO2    ZR 3148   3.928   4.855   1.640
 1050ZrO2    ZO 3149   3.822   4.997   1.997
 1050ZrO2    ZO 3150   3.856   4.742   1.824
 1051ZrO2    ZR 3151   2.657   2.761   2.419
 1051ZrO2    ZO 3152   2.729   2.649   2.084
 1051ZrO2    ZO 3153   2.763   2.903   2.257
 1052ZrO2    ZR 3154   2.874   2.761   2.159
 1052ZrO2    ZO 3155   2.769   2.903   2.517
 1052ZrO2    ZO 3156   2.803   2.649   2.344
 1053ZrO2    ZR 3157   2.921   2.996   2.378
 1053ZrO2    ZO 3158   2.992   3.109   2.193
 1053ZrO2    ZO 3159   3.026   2.854   2.020
 1054ZrO2    ZR 3160   3.138   2.996   2.118
 1054ZrO2    ZO 3161   3.032   2.854   2.280
 1054ZrO2    ZO 3162   3.066   3.109   2.453
 1055ZrO2    ZR 3163   3.184   2.761   2.419
 1055ZrO2    ZO 3164   3.256   2.649   2.084
 1055ZrO2    ZO 3165   3.289   2.903   2.257
 1056ZrO2    ZR 3166   3.401   2.761   2.159
 1056ZrO2    ZO 3167   3.296   2.903   2.517
 1056ZrO2    ZO 3168   3.329   2.649   2.344
 1057ZrO2    ZR 3169   3.447   2.996   2.378
 1057ZrO2    ZO 3170   3.519   3.109   2.193
 1057ZrO2    ZO 3171   3.553   2.854   2.020
 1058ZrO2    ZR 3172   3.664   2.996   2.118
 1058ZrO2    ZO 3173   3.559   2.854   2.280
 1058ZrO2    ZO 3174   3.593   3.109   2.453
 1059ZrO2    ZR 3175   3.711   2.761   2.419
 1059ZrO2    ZO 3176   3.783   2.649   2.084
 1059ZrO2    ZO 3177   3.816   2.903   2.257
 1060ZrO2    ZR 3178   3.928   2.761   2.159
 1060ZrO2    ZO 3179   3.822   2.903   2.517
 1060ZrO2    ZO 3180   3.856   2.649   2.344
 1061ZrO2    ZR 3181   2.657   3.285   2.419
 1061ZrO2    ZO 3182   2.729   3.172   2.084
 1061ZrO2    ZO 3183   2.763   3.427   2.257
 1062ZrO2    ZR 3184   2.874   3.285   2.159
 1062ZrO2    ZO 3185   2.769   3.427   2.517
 1062ZrO2    ZO 3186   2.803   3.172   2.344
 1063ZrO2    ZR 3187   2.921   3.519   2.378
 1063ZrO2    ZO 3188   2.992   3.632   2.193
 1063ZrO2    ZO 3189   3.026   3.378   2.020
 1064ZrO2    ZR 3190   3.138   3.519   2.118
 1064ZrO2    ZO 3191   3.032   3.378   2.280
 1064ZrO2    ZO 3192   3.066   3.632   2.453
 1065ZrO2    ZR 3193   3.184   3.285   2.419
 1065ZrO2    ZO 3194   3.256   3.172   2.084
 1065ZrO2    ZO 3195   3.289   3.427   2.257
 1066ZrO2    ZR 3196   3.401   3.285   2.159
 1066ZrO2    ZO 3197   3.296   3.427   2.517
 1066ZrO2    ZO 3198   3.329   3.172   2.344
 1067ZrO2    ZR 3199   3.447   3.519   2.378
 1067ZrO2    ZO 3200   3.519   3.632   2.193
 1067ZrO2    ZO 3201   3.553   3.378   2.020
 1068ZrO2    ZR 3202   3.664   3.519   2.118
 1068ZrO2    ZO 3203   3.559   3.378   2.280
 1068ZrO2    ZO 3204   3.593   3.632   2.453
 1069ZrO2    ZR 3205   3.711   3.285   2.419
 1069ZrO2    ZO 3206   3.783   3.172   2.084
 1069ZrO2    ZO 3207   3.816   3.427   2.257
 1070ZrO2    ZR 3208   3.928   3.285   2.159
 1070ZrO2    ZO 3209   3.822   3.427   2.517
 1070ZrO2    ZO 3210   3.856   3.172   2.344
 1071ZrO2    ZR 3211   2.657   3.808   2.419
 1071ZrO2    ZO 3212   2.729   3.696   2.084
 1071ZrO2    ZO 3213   2.763   3.950   2.257
 1072ZrO2    ZR 3214   2.874   3.808   2.159
 1072ZrO2    ZO 3215   2.769   3.950   2.517
 1072ZrO2    ZO 3216   2.803   3.696   2.344
 1073ZrO2    ZR 3217   2.921   4.043   2.378
 1073ZrO2    ZO 3218   2.992   4.155   2.193
 1073ZrO2    ZO 3219   3.026   3.901   2.020
 1074ZrO2    ZR 3220   3.138   4.043   2.118
 1074ZrO2    ZO 3221   3.032   3.901   2.280
 1074ZrO2    ZO 3222   3.066   4.155   2.453
 1075ZrO2    ZR 3223   3.184   3.808   2.419
 1075ZrO2    ZO 3224   3.256   3.696   2.084
 1075ZrO2    ZO 3225   3.289   3.950   2.257
 1076ZrO2    ZR 3226   3.401   3.808   2.159
 1076ZrO2    ZO 3227   3.296   3.950   2.517
 1076ZrO2    ZO 3228   3.329   3.696   2.344
 1077ZrO2    ZR 3229   3.447   4.043   2.378
 1077ZrO2    ZO 3230   3.519   4.155   2.193
 1077ZrO2    ZO 3231   3.553   3.901   2.020
 1078ZrO2    ZR 3232   3.664   4.043   2.118
 1078ZrO2    ZO 3233   3.559   3.901   2.280
 1078ZrO2    ZO 3234   3.593   4.155   2.453
 1079ZrO2    ZR 3235   3.711   3.808   2.419
 1079ZrO2    ZO 3236   3.783   3.696   2.084
 1079ZrO2    ZO 3237   3.816   3.950   2.257
 1080ZrO2    ZR 3238   3.928   3.808   2.159
 1080ZrO2    ZO 3239   3.822   3.950   2.517
 1080ZrO2    ZO 3240   3.856   3.696   2.344
 1081ZrO2    ZR 3241   2.657   4.332   2.419
 1081ZrO2    ZO 3242   2.729   4.219   2.084
 1081ZrO2    ZO 3243   2.763   4.473   2.257
 1082ZrO2    ZR 3244   2.874   4.332   2.159
 1082ZrO2    ZO 3245   2.769   4.473   2.517
 1082ZrO2    ZO 3246   2.803   4.219   2.344
 1083ZrO2    ZR 3247   2.921   4.566   2.378
 1083ZrO2    ZO 3248   2.992   4.679   2.193
 1083ZrO2    ZO 3249   3.026   4.424   2.020
 1084ZrO2    ZR 3250   3.138   4.566   2.118
 1084ZrO2    ZO 3251   3.032   4.424   2.280
 1084ZrO2    ZO 3252   3.066   4.679   2.453
 1085ZrO2    ZR 3253   3.184   4.332   2.419
 1085ZrO2    ZO 3254   3.256   4.219   2.084
 1085ZrO2    ZO 3255   3.289   4.473   2.257
 1086ZrO2    ZR 3256   3.401   4.332   2.159
 1086ZrO2    ZO 3257   3.296   4.473   2.517
 1086ZrO2    ZO 3258   3.329   4.219   2.344
 1087ZrO2    ZR 3259   3.447   4.566   2.378
 1087ZrO2    ZO 3260   3.519   4.679   2.193
 1087ZrO2    ZO 3261   3.553   4.424   2.020
 1088ZrO2    ZR 3262   3.664   4.566   2.118
 1088ZrO2    ZO 3263   3.559   4.424   2.280
 1088ZrO2    ZO 3264   3.593   4.679   2.453
 1089ZrO2    ZR 3265   3.711   4.332   2.419
 1089ZrO2    ZO 3266   3.783   4.219   2.084
 1089ZrO2    ZO 3267   3.816   4.473   2.257
 1090ZrO2    ZR 3268   3.928   4.332   2.159
 1090ZrO2    ZO 3269   3.822   4.473   2.517
 1090ZrO2    ZO 3270   3.856   4.219   2.344
 1091ZrO2    ZR 3271   2.657   4.855   2.419
 1091ZrO2    ZO 3272   2.729   4.742   2.084
 1091ZrO2    ZO 3273   2.763   4.997   2.257
 1092ZrO2    ZR 3274   2.874   4.855   2.159
 1092ZrO2    ZO 3275   2.769   4.997   2.517
 1092ZrO2    ZO 3276   2.803   4.742   2.344
 1093ZrO2    ZR 3277   2.921   5.089   2.378
 1093ZrO2    ZO 3278   2.992   5.202   2.193
 1093ZrO2    ZO 3279   3.026   4.948   2.020
 1094ZrO2    ZR 3280   3.138   5.089   2.118
 1094ZrO2    ZO 3281   3.032   4.948   2.280
 1094ZrO2    ZO 3282   3.066   5.202   2.453
 1095ZrO2    ZR 3283   3.184   4.855   2.419
 1095ZrO2    ZO 3284   3.256   4.742   2.084
 1095ZrO2    ZO 3285   3.289   4.997   2.257
 1096ZrO2    ZR 3286   3.401   4.855   2.159
 1096ZrO2    ZO 3287   3.296   4.997   2.517
 1096ZrO2    ZO 3288   3.329   4.742   2.344
 1097ZrO2    ZR 3289   3.447   5.089   2.378
 1097ZrO2    ZO 3290   3.519   5.202   2.193
 1097ZrO2    ZO 3291   3.553   4.948   2.020
 1098ZrO2    ZR 3292   3.664   5.089   2.118
 1098ZrO2    ZO 3293   3.559   4.948   2.280
 1098ZrO2    ZO 3294   3.593   5.202   2.453
 1099ZrO2    ZR 3295   3.711   4.855   2.419
 1099ZrO2    ZO 3296   3.783   4.742   2.084
 1099ZrO2    ZO 3297   3.816   4.997   2.257
 1100ZrO2    ZR 3298   3.928   4.855   2.159
 1100ZrO2    ZO 3299   3.822   4.997   2.517
 1100ZrO2    ZO 3300   3.856   4.742   2.344
 1101ZrO2    ZR 3301   2.657   2.761   2.939
 1101ZrO2    ZO 3302   2.729   2.649   2.604
 1101ZrO2    ZO 3303   2.763   2.903   2.777
 1102ZrO2    ZR 3304   2.874   2.761   2.679
 1102ZrO2    ZO 3305   2.769   2.903   3.037
 1102ZrO2    ZO 3306   2.803   2.649   2.864
 1103ZrO2    ZR 3307   2.921   2.996   2.898
 1103ZrO2    ZO 3308   2.992   3.109   2.713
 1103ZrO2    ZO 3309   3.026   2.854   2.540
 1104ZrO2    ZR 3310   3.138   2.996   2.638
 1104ZrO2    ZO 3311   3.032   2.854   2.800
 1104ZrO2    ZO 3312   3.066   3.109   2.973
 1105ZrO2    ZR 3313   3.184   2.761   2.939
 1105ZrO2    ZO 3314   3.256   2.649   2.604
 1105ZrO2    ZO 3315   3.289   2.903   2.777
 1106ZrO2    ZR 3316   3.401   2.761   2.679
 1106ZrO2    ZO 3317   3.296   2.903   3.037
 1106ZrO2    ZO 3318   3.329   2.649   2.864
 1107ZrO2    ZR 3319   3.447   2.996   2.898
 1107ZrO2    ZO 3320   3.519   3.109   2.713
 1107ZrO2    ZO 3321   3.553   2.854   2.540
 1108ZrO2    ZR 3322   3.664   2.996   2.638
 1108ZrO2    ZO 3323   3.559   2.854   2.800
 1108ZrO2    ZO 3324   3.593   3.109   2.973
 1109ZrO2    ZR 3325   3.711   2.761   2.939
 1109ZrO2    ZO 3326   3.783   2.649   2.604
 1109ZrO2    ZO 3327   3.816   2.903   2.777
 1110ZrO2    ZR 3328   3.928   2.761   2.679
 1110ZrO2    ZO 3329   3.822   2.903   3.037
 1110ZrO2    ZO 3330   3.856   2.649   2.864
 1111ZrO2    ZR 3331   2.657   3.285   2.939
 1111ZrO2    ZO 3332   2.729   3.172   2.604
 1111ZrO2    ZO 3333   2.763   3.427   2.777
 1112ZrO2    ZR 3334   2.874   3.285   2.679
 1112ZrO2    ZO 3335   2.769   3.427   3.037
 1112ZrO2    ZO 3336   2.803   3.172   2.864
 1113ZrO2    ZR 3337   2.921   3.519   2.898
 1113ZrO2    ZO 3338   2.992   3.632   2.713
 1113ZrO2    ZO 3339   3.026   3.378   2.540
 1114ZrO2    ZR 3340   3.138   3.519   2.638
 1114ZrO2    ZO 3341   3.032   3.378   2.800
 1114ZrO2    ZO 3342   3.066   3.632   2.973
 1115ZrO2    ZR 3343   3.184   3.285   2.939
 1115ZrO2    ZO 3344   3.256   3.172   2.604
 1115ZrO2    ZO 3345   3.289   3.427   2.777
 1116ZrO2    ZR 3346   3.401   3.285   2.679
 1116ZrO2    ZO 3347   3.296   3.427   3.037
 1116ZrO2    ZO 3348   3.329   3.172   2.864
 1117ZrO2    ZR 3349   3.447   3.519   2.898
 1117ZrO2    ZO 3350   3.519   3.632   2.713
 1117ZrO2    ZO 3351   3.553   3.378   2.540
 1118ZrO2    ZR 3352   3.664   3.519   2.638
 1118ZrO2    ZO 3353   3.559   3.378   2.800
 1118ZrO2    ZO 3354   3.593   3.632   2.973
 1119ZrO2    ZR 3355   3.711   3.285   2.939
 1119ZrO2    ZO 3356   3.783   3.172   2.604
 1119ZrO2    ZO 3357   3.816   3.427   2.777
 1120ZrO2    ZR 3358   3.928   3.285   2.679
 1120ZrO2    ZO 3359   3.822   3.427   3.037
 1120ZrO2    ZO 3360   3.856   3.172   2.864
 1121ZrO2    ZR 3361   2.657   3.808   2.939
 1121ZrO2    ZO 3362   2.729   3.696   2.604
 1121ZrO2    ZO 3363   2.763   3.950   2.777
 1122ZrO2    ZR 3364   2.874   3.808   2.679
 1122ZrO2    ZO 3365   2.769   3.950   3.037
 1122ZrO2    ZO 3366   2.803   3.696   2.864
 1123ZrO2    ZR 3367   2.921   4.043   2.898
 1123ZrO2    ZO 3368   2.992   4.155   2.713
 1123ZrO2    ZO 3369   3.026   3.901   2.540
 1124ZrO2    ZR 3370   3.138   4.043   2.638
 1124ZrO2    ZO 3371   3.032   3.901   2.800
 1124ZrO2    ZO 3372   3.066   4.155   2.973
 1125ZrO2    ZR 3373   3.184   3.808   2.939
 1125ZrO2    ZO 3374   3.256   3.696   2.604
 1125ZrO2    ZO 3375   3.289   3.950   2.777
 1126ZrO2    ZR 3376   3.401   3.808   2.679
 1126ZrO2    ZO 3377   3.296   3.950   3.037
 1126ZrO2    ZO 3378   3.329   3.696   2.864
 1127ZrO2    ZR 3379   3.447   4.043   2.898
 1127ZrO2    ZO 3380   3.519   4.155   2.713
 1127ZrO2    ZO 3381   3.553   3.901   2.540
 1128ZrO2    ZR 3382   3.664   4.043   2.638
 1128ZrO2    ZO 3383   3.559   3.901   2.800
 1128ZrO2    ZO 3384   3.593   4.155   2.973
 1129ZrO2    ZR 3385   3.711   3.808   2.939
 1129ZrO2    ZO 3386   3.783   3.696   2.604
 1129ZrO2    ZO 3387   3.816   3.950   2.777
 1130ZrO2    ZR 3388   3.928   3.808   2.679
 1130ZrO2    ZO 3389   3.822   3.950   3.037
 1130ZrO2    ZO 3390   3.856   3.696   2.864
 1131ZrO2    ZR 3391   2.657   4.332   2.939
 1131ZrO2    ZO 3392   2.729   4.219   2.604
 1131ZrO2    ZO 3393   2.763   4.473   2.777
 1132ZrO2    ZR 3394   2.874   4.332   2.679
 1132ZrO2    ZO 3395   2.769   4.473   3.037
 1132ZrO2    ZO 3396   2.803   4.219   2.864
 1133ZrO2    ZR 3397   2.921   4.566   2.898
 1133ZrO2    ZO 3398   2.992   4.679   2.713
 1133ZrO2    ZO 3399   3.026   4.424   2.540
 1134ZrO2    ZR 3400   3.138   4.566   2.638
 1134ZrO2    ZO 3401   3.032   4.424   2.800
 1134ZrO2    ZO 3402   3.066   4.679   2.973
 1135ZrO2    ZR 3403   3.184   4.332   2.939
 1135ZrO2    ZO 3404   3.256   4.219   2.604
 1135ZrO2    ZO 3405   3.289   4.473   2.777
 1136ZrO2    ZR 3406   3.401   4.332   2.679
 1136ZrO2    ZO 3407   3.296   4.473   3.037
 1136ZrO2    ZO 3408   3.329   4.219   2.864
 1137ZrO2    ZR 3409   3.447   4.566   2.898
 1137ZrO2    ZO 3410   3.519   4.679   2.713
 1137ZrO2    ZO 3411   3.553   4.424   2.540
 1138ZrO2    ZR 3412   3.664   4.566   2.638
 1138ZrO2    ZO 3413   3.559   4.424   2.800
 1138ZrO2    ZO 3414   3.593   4.679   2.973
 1139ZrO2    ZR 3415   3.711   4.332   2.939
 1139ZrO2    ZO 3416   3.783   4.219   2.604
 1139ZrO2    ZO 3417   3.816   4.473   2.777
 1140ZrO2    ZR 3418   3.928   4.332   2.679
 1140ZrO2    ZO 3419   3.822   4.473   3.037
 1140ZrO2    ZO 3420   3.856   4.219   2.864
 1141ZrO2    ZR 3421   2.657   4.855   2.939
 1141ZrO2    ZO 3422   2.729   4.742   2.604
 1141ZrO2    ZO 3423   2.763   4.997   2.777
 1142ZrO2    ZR 3424   2.874   4.855   2.679
 1142ZrO2    ZO 3425   2.769   4.997   3.037
 1142ZrO2    ZO 3426   2.803   4.742   2.864
 1143ZrO2    ZR 3427   2.921   5.089   2.898
 1143ZrO2    ZO 3428   2.992   5.202   2.713
 1143ZrO2    ZO 3429   3.026   4.948   2.540
 1144ZrO2    ZR 3430   3.138   5.089   2.638
 1144ZrO2    ZO 3431   3.032   4.948   2.800
 1144ZrO2    ZO 3432   3.066   5.202   2.973
 1145ZrO2    ZR 3433   3.184   4.855   2.939
 1145ZrO2    ZO 3434   3.256   4.742   2.604
 1145ZrO2    ZO 3435   3.289   4.997   2.777
 1146ZrO2    ZR 3436   3.401   4.855   2.679
 1146ZrO2    ZO 3437   3.296   4.997   3.037
 1146ZrO2    ZO 3438   3.329   4.742   2.864
 1147ZrO2    ZR 3439   3.447   5.089   2.898
 1147ZrO2    ZO 3440   3.519   5.202   2.713
 1147ZrO2    ZO 3441   3.553   4.948   2.540
 1148ZrO2    ZR 3442   3.664   5.089   2.638
 1148ZrO2    ZO 3443   3.559   4.948   2.800
 1148ZrO2    ZO 3444   3.593   5.202   2.973
 1149ZrO2    ZR 3445   3.711   4.855   2.939
 1149ZrO2    ZO 3446   3.783   4.742   2.604
 1149ZrO2    ZO 3447   3.816   4.997   2.777
 1150ZrO2    ZR 3448   3.928   4.855   2.679
 1150ZrO2    ZO 3449   3.822   4.997   3.037
 1150ZrO2    ZO 3450   3.856   4.742   2.864
 1151ZrO2    ZR 3451   2.657   2.761   3.459
 1151ZrO2    ZO 3452   2.729   2.649   3.124
 1151ZrO2    ZO 3453   2.763   2.903   3.297
 1152ZrO2    ZR 3454   2.874   2.761   3.199
 1152ZrO2    ZO 3455   2.769   2.903   3.557
 1152ZrO2    ZO 3456   2.803   2.649   3.384
 1153ZrO2    ZR 3457   2.921   2.996   3.417
 1153ZrO2    ZO 3458   2.992   3.109   3.232
 1153ZrO2    ZO 3459   3.026   2.854   3.059
 1154ZrO2    ZR 3460   3.138   2.996   3.158
 1154ZrO2    ZO 3461   3.032   2.854   3.319
 1154ZrO2    ZO 3462   3.066   3.109   3.492
 1155ZrO2    ZR 3463   3.184   2.761   3.459
 1155ZrO2    ZO 3464   3.256   2.649   3.124
 1155ZrO2    ZO 3465   3.289   2.903   3.297
 1156ZrO2    ZR 3466   3.401   2.761   3.199
 1156ZrO2    ZO 3467   3.296   2.903   3.557
 1156ZrO2    ZO 3468   3.329   2.649   3.384
 1157ZrO2    ZR 3469   3.447   2.996   3.417
 1157ZrO2    ZO 3470   3.519   3.109   3.232
 1157ZrO2    ZO 3471   3.553   2.854   3.059
 1158ZrO2    ZR 3472   3.664   2.996   3.158
 1158ZrO2    ZO 3473   3.559   2.854   3.319
 1158ZrO2    ZO 3474   3.593   3.109   3.492
 1159ZrO2    ZR 3475   3.711   2.761   3.459
 1159ZrO2    ZO 3476   3.783   2.649   3.124
 1159ZrO2    ZO 3477   3.816   2.903   3.297
 1160ZrO2    ZR 3478   3.928   2.761   3.199
 1160ZrO2    ZO 3479   3.822   2.903   3.557
 1160ZrO2    ZO 3480   3.856   2.649   3.384
 1161ZrO2    ZR 3481   2.657   3.285   3.459
 1161ZrO2    ZO 3482   2.729   3.172   3.124
 1161ZrO2    ZO 3483   2.763   3.427   3.297
 1162ZrO2    ZR 3484   2.874   3.285   3.199
 1162ZrO2    ZO 3485   2.769   3.427   3.557
 1162ZrO2    ZO 3486   2.803   3.172   3.384
 1163ZrO2    ZR 3487   2.921   3.519   3.417
 1163ZrO2    ZO 3488   2.992   3.632   3.232
 1163ZrO2    ZO 3489   3.026   3.378   3.059
 1164ZrO2    ZR 3490   3.138   3.519   3.158
 1164ZrO2    ZO 3491   3.032   3.378   3.319
 1164ZrO2    ZO 3492   3.066   3.632   3.492
 1165ZrO2    ZR 3493   3.184   3.285   3.459
 1165ZrO2    ZO 3494   3.256   3.172   3.124
 1165ZrO2    ZO 3495   3.289   3.427   3.297
 1166ZrO2    ZR 3496   3.401   3.285   3.199
 1166ZrO2    ZO 3497   3.296   3.427   3.557
 1166ZrO2    ZO 3498   3.329   3.172   3.384
 1167ZrO2    ZR 3499   3.447   3.519   3.417
 1167ZrO2    ZO 3500   3.519   3.632   3.232
 1167ZrO2    ZO 3501   3.553   3.378   3.059
 1168ZrO2    ZR 3502   3.664   3.519   3.158
 1168ZrO2    ZO 3503   3.559   3.378   3.319
 1168ZrO2    ZO 3504   3.593   3.632   3.492
 1169ZrO2    ZR 3505   3.711   3.285   3.459
 1169ZrO2    ZO 3506   3.783   3.172   3.124
 1169ZrO2    ZO 3507   3.816   3.427   3.297
 1170ZrO2    ZR 3508   3.928   3.285   3.199
 1170ZrO2    ZO 3509   3.822   3.427   3.557
 1170ZrO2    ZO 3510   3.856   3.172   3.384
 1171ZrO2    ZR 3511   2.657   3.808   3.459
 1171ZrO2    ZO 3512   2.729   3.696   3.124
 1171ZrO2    ZO 3513   2.763   3.950   3.297
 1172ZrO2    ZR 3514   2.874   3.808   3.199
 1172ZrO2    ZO 3515   2.769   3.950   3.557
 1172ZrO2    ZO 3516   2.803   3.696   3.384
 1173ZrO2    ZR 3517   2.921   4.043   3.417
 1173ZrO2    ZO 3518   2.992   4.155   3.232
 1173ZrO2    ZO 3519   3.026   3.901   3.059
 1174ZrO2    ZR 3520   3.138   4.043   3.158
 1174ZrO2    ZO 3521   3.032   3.901   3.319
 1174ZrO2    ZO 3522   3.066   4.155   3.492
 1175ZrO2    ZR 3523   3.184   3.808   3.459
 1175ZrO2    ZO 3524   3.256   3.696   3.124
 1175ZrO2    ZO 3525   3.289   3.950   3.297
 1176ZrO2    ZR 3526   3.401   3.808   3.199
 1176ZrO2    ZO 3527   3.296   3.950   3.557
 1176ZrO2    ZO 3528   3.329   3.696   3.384
 1177ZrO2    ZR 3529   3.447   4.043   3.417
 1177ZrO2    ZO 3530   3.519   4.155   3.232
 1177ZrO2    ZO 3531   3.553   3.901   3.059
 1178ZrO2    ZR 3532   3.664   4.043   3.158
 1178ZrO2    ZO 3533   3.559   3.901   3.319
 1178ZrO2    ZO 3534   3.593   4.155   3.492
 1179ZrO2    ZR 3535   3.711   3.808   3.459
 1179ZrO2    ZO 3536   3.783   3.696   3.124
 1179ZrO2    ZO 3537   3.816   3.950   3.297
 1180ZrO2    ZR 3538   3.928   3.808   3.199
 1180ZrO2    ZO 3539   3.822   3.950   3.557
 1180ZrO2    ZO 3540   3.856   3.696   3.384
 1181ZrO2    ZR 3541   2.657   4.332   3.459
 1181ZrO2    ZO 3542   2.729   4.219   3.124
 1181ZrO2    ZO 3543   2.763   4.473   3.297
 1182ZrO2    ZR 3544   2.874   4.332   3.199
 1182ZrO2    ZO 3545   2.769   4.473   3.557
 1182ZrO2    ZO 3546   2.803   4.219   3.384
 1183ZrO2    ZR 3547   2.921   4.566   3.417
 1183ZrO2    ZO 3548   2.992   4.679   3.232
 1183ZrO2    ZO 3549   3.026   4.424   3.059
 1184ZrO2    ZR 3550   3.138   4.566   3.158
 1184ZrO2    ZO 3551   3.032   4.424   3.319
 1184ZrO2    ZO 3552   3.066   4.679   3.492
 1185ZrO2    ZR 3553   3.184   4.332   3.459
 1185ZrO2    ZO 3554   3.256   4.219   3.124
 1185ZrO2    ZO 3555   3.289   4.473   3.297
 1186ZrO2    ZR 3556   3.401   4.332   3.199
 1186ZrO2    ZO 3557   3.296   4.473   3.557
 1186ZrO2    ZO 3558   3.329   4.219   3.384
 1187ZrO2    ZR 3559   3.447   4.566   3.417
 1187ZrO2    ZO 3560   3.519   4.679   3.232
 1187ZrO2    ZO 3561   3.553   4.424   3.059
 1188ZrO2    ZR 3562   3.664   4.566   3.158
 1188ZrO2    ZO 3563   3.559   4.424   3.319
 1188ZrO2    ZO 3564   3.593   4.679   3.492
 1189ZrO2    ZR 3565   3.711   4.332   3.459
 1189ZrO2    ZO 3566   3.783   4.219   3.124
 1189ZrO2    ZO 3567   3.816   4.473   3.297
 1190ZrO2    ZR 3568   3.928   4.332   3.199
 1190ZrO2    ZO 3569   3.822   4.473   3.557
 1190ZrO2    ZO 3570   3.856   4.219   3.384
 1191ZrO2    ZR 3571   2.657   4.855   3.459
 1191ZrO2    ZO 3572   2.729   4.742   3.124
 1191ZrO2    ZO 3573   2.763   4.997   3.297
 1192ZrO2    ZR 3574   2.874   4.855   3.199
 1192ZrO2    ZO 3575   2.769   4.997   3.557
 1192ZrO2    ZO 3576   2.803   4.742   3.384
 1193ZrO2    ZR 3577   2.921   5.089   3.417
 1193ZrO2    ZO 3578   2.992   5.202   3.232
 1193ZrO2    ZO 3579   3.026   4.948   3.059
 1194ZrO2    ZR 3580   3.138   5.089   3.158
 1194ZrO2    ZO 3581   3.032   4.948   3.319
 1194ZrO2    ZO 3582   3.066   5.202   3.492
 1195ZrO2    ZR 3583   3.184   4.855   3.459
 1195ZrO2    ZO 3584   3.256   4.742   3.124
 1195ZrO2    ZO 3585   3.289   4.997   3.297
 1196ZrO2    ZR 3586   3.401   4.855   3.199
 1196ZrO2    ZO 3587   3.296   4.997   3.557
 1196ZrO2    ZO 3588   3.329   4.742   3.384
 1197ZrO2    ZR 3589   3.447   5.089   3.417
 1197ZrO2    ZO 3590   3.519   5.202   3.232
 1197ZrO2    ZO 3591   3.553   4.948   3.059
 1198ZrO2    ZR 3592   3.664   5.089   3.158
 1198ZrO2    ZO 3593   3.559   4.948   3.319
 1198ZrO2    ZO 3594   3.593   5.202   3.492
 1199ZrO2    ZR 3595   3.711   4.855   3.459
 1199ZrO2    ZO 3596   3.783   4.742   3.124
 1199ZrO2    ZO 3597   3.816   4.997   3.297
 1200ZrO2    ZR 3598   3.928   4.855   3.199
 1200ZrO2    ZO 3599   3.822   4.997   3.557
 1200ZrO2    ZO 3600   3.856   4.742   3.384
 1201ZrO2    ZR 3601   3.974   0.379   1.858
 1201ZrO2    ZO 3602   4.046   0.491   1.673
 1201ZrO2    ZO 3603   4.080   0.237   1.500
 1202ZrO2    ZR 3604   4.191   0.379   1.598
 1202ZrO2    ZO 3605   4.086   0.237   1.760
 1202ZrO2    ZO 3606   4.120   0.491   1.933
 1203ZrO2    ZR 3607   4.238   0.145   1.900
 1203ZrO2    ZO 3608   4.309   0.032   1.565
 1203ZrO2    ZO 3609   4.343   0.286   1.738
 1204ZrO2    ZR 3610   4.455   0.145   1.640
 1204ZrO2    ZO 3611   4.349   0.286   1.997
 1204ZrO2    ZO 3612   4.383   0.032   1.824
 1205ZrO2    ZR 3613   4.501   0.379   1.858
 1205ZrO2    ZO 3614   4.573   0.491   1.673
 1205ZrO2    ZO 3615   4.607   0.237   1.500
 1206ZrO2    ZR 3616   4.718   0.379   1.598
 1206ZrO2    ZO 3617   4.613   0.237   1.760
 1206ZrO2    ZO 3618   4.646   0.491   1.933
 1207ZrO2    ZR 3619   4.765   0.145   1.900
 1207ZrO2    ZO 3620   4.836   0.032   1.565
 1207ZrO2    ZO 3621   4.870   0.286   1.738
 1208ZrO2    ZR 3622   4.981   0.145   1.640
 1208ZrO2    ZO 3623   4.876   0.286   1.997
 1208ZrO2    ZO 3624   4.910   0.032   1.824
 1209ZrO2    ZR 3625   5.028   0.379   1.858
 1209ZrO2    ZO 3626   5.100   0.491   1.673
 1209ZrO2    ZO 3627   5.133   0.237   1.500
 1210ZrO2    ZR 3628   5.245   0.379   1.598
 1210ZrO2    ZO 3629   5.139   0.237   1.760
 1210ZrO2    ZO 3630   5.173   0.491   1.933
 1211ZrO2    ZR 3631   3.974   0.902   1.858
 1211ZrO2    ZO 3632   4.046   1.015   1.673
 1211ZrO2    ZO 3633   4.080   0.761   1.500
 1212ZrO2    ZR 3634   4.191   0.902   1.598
 1212ZrO2    ZO 3635   4.086   0.761   1.760
 1212ZrO2    ZO 3636   4.120   1.015   1.933
 1213ZrO2    ZR 3637   4.238   0.668   1.900
 1213ZrO2    ZO 3638   4.309   0.555   1.565
 1213ZrO2    ZO 3639   4.343   0.810   1.738
 1214ZrO2    ZR 3640   4.455   0.668   1.640
 1214ZrO2    ZO 3641   4.349   0.810   1.997
 1214ZrO2    ZO 3642   4.383   0.555   1.824
 1215ZrO2    ZR 3643   4.501   0.902   1.858
 1215ZrO2    ZO 3644   4.573   1.015   1.673
 1215ZrO2    ZO 3645   4.607   0.761   1.500
 1216ZrO2    ZR 3646   4.718   0.902   1.598
 1216ZrO2    ZO 3647   4.613   0.761   1.760
 1216ZrO2    ZO 3648   4.646   1.015   1.933
 1217ZrO2    ZR 3649   4.765   0.668   1.900
 1217ZrO2    ZO 3650   4.836   0.555   1.565
 1217ZrO2    ZO 3651   4.870   0.810   1.738
 1218ZrO2    ZR 3652   4.981   0.668   1.640
 1218ZrO2    ZO 3653   4.876   0.810   1.997
 1218ZrO2    ZO 3654   4.910   0.555   1.824
 1219ZrO2    ZR 3655   5.028   0.902   1.858
 1219ZrO2    ZO 3656   5.100   1.015   1.673
 1219ZrO2    ZO 3657   5.133   0.761   1.500
 1220ZrO2    ZR 3658   5.245   0.902   1.598
 1220ZrO2    ZO 3659   5.139   0.761   1.760
 1220ZrO2    ZO 3660   5.173   1.015   1.933
 1221ZrO2    ZR 3661   3.974   1.426   1.858
 1221ZrO2    ZO 3662   4.046   1.538   1.673
 1221ZrO2    ZO 3663   4.080   1.284   1.500
 1222ZrO2    ZR 3664   4.191   1.426   1.598
 1222ZrO2    ZO 3665   4.086   1.284   1.760
 1222ZrO2    ZO 3666   4.120   1.538   1.933
 1223ZrO2    ZR 3667   4.238   1.191   1.900
 1223ZrO2    ZO 3668   4.309   1.079   1.565
 1223ZrO2    ZO 3669   4.343   1.333   1.738
 1224ZrO2    ZR 3670   4.455   1.191   1.640
 1224ZrO2    ZO 3671   4.349   1.333   1.997
 1224ZrO2    ZO 3672   4.383   1.079   1.824
 1225ZrO2    ZR 3673   4.501   1.426   1.858
 1225ZrO2    ZO 3674   4.573   1.538   1.673
 1225ZrO2    ZO 3675   4.607   1.284   1.500
 1226ZrO2    ZR 3676   4.718   1.426   1.598
 1226ZrO2    ZO 3677   4.613   1.284   1.760
 1226ZrO2    ZO 3678   4.646   1.538   1.933
 1227ZrO2    ZR 3679   4.765   1.191   1.900
 1227ZrO2    ZO 3680   4.836   1.079   1.565
 1227ZrO2    ZO 3681   4.870   1.333   1.738
 1228ZrO2    ZR 3682   4.981   1.191   1.640
 1228ZrO2    ZO 3683   4.876   1.333   1.997
 1228ZrO2    ZO 3684   4.910   1.079   1.824
 1229ZrO2    ZR 3685   5.028   1.426   1.858
 1229ZrO2    ZO 3686   5.100   1.538   1.673
 1229ZrO2    ZO 3687   5.133   1.284   1.500
 1230ZrO2    ZR 3688   5.245   1.426   1.598
 1230ZrO2    ZO 3689   5.139   1.284   1.760
 1230ZrO2    ZO 3690   5.173   1.538   1.933
 1231ZrO2    ZR 3691   3.974   1.949   1.858
 1231ZrO2    ZO 3692   4.046   2.062   1.673
 1231ZrO2    ZO 3693   4.080   1.807   1.500
 1232ZrO2    ZR 3694   4.191   1.949   1.598
 1232ZrO2    ZO 3695   4.086   1.807   1.760
 1232ZrO2    ZO 3696   4.120   2.062   1.933
 1233ZrO2    ZR 3697   4.238   1.715   1.900
 1233ZrO2    ZO 3698   4.309   1.602   1.565
 1233ZrO2    ZO 3699   4.343   1.857   1.738
 1234ZrO2    ZR 3700   4.455   1.715   1.640
 1234ZrO2    ZO 3701   4.349   1.857   1.997
 1234ZrO2    ZO 3702   4.383   1.602   1.824
 1235ZrO2    ZR 3703   4.501   1.949   1.858
 1235ZrO2    ZO 3704   4.573   2.062   1.673
 1235ZrO2    ZO 3705   4.607   1.807   1.500
 1236ZrO2    ZR 3706   4.718   1.949   1.598
 1236ZrO2    ZO 3707   4.613   1.807   1.760
 1236ZrO2    ZO 3708   4.646   2.062   1.933
 1237ZrO2    ZR 3709   4.765   1.715   1.900
 1237ZrO2    ZO 3710   4.836   1.602   1.565
 1237ZrO2    ZO 3711   4.870   1.857   1.738
 1238ZrO2    ZR 3712   4.981   1.715   1.640
 1238ZrO2    ZO 3713   4.876   1.857   1.997
 1238ZrO2    ZO 3714   4.910   1.602   1.824
 1239ZrO2    ZR 3715   5.028   1.949   1.858
 1239ZrO2    ZO 3716   5.100   2.062   1.673
 1239ZrO2    ZO 3717   5.133   1.807   1.500
 1240ZrO2    ZR 3718   5.245   1.949   1.598
 1240ZrO2    ZO 3719   5.139   1.807   1.760
 1240ZrO2    ZO 3720   5.173   2.062   1.933
 1241ZrO2    ZR 3721   3.974   2.473   1.858
 1241ZrO2    ZO 3722   4.046   2.585   1.673
 1241ZrO2    ZO 3723   4.080   2.331   1.500
 1242ZrO2    ZR 3724   4.191   2.473   1.598
 1242ZrO2    ZO 3725   4.086   2.331   1.760
 1242ZrO2    ZO 3726   4.120   2.585   1.933
 1243ZrO2    ZR 3727   4.238   2.238   1.900
 1243ZrO2    ZO 3728   4.309   2.125   1.565
 1243ZrO2    ZO 3729   4.343   2.380   1.738
 1244ZrO2    ZR 3730   4.455   2.238   1.640
 1244ZrO2    ZO 3731   4.349   2.380   1.997
 1244ZrO2    ZO 3732   4.383   2.125   1.824
 1245ZrO2    ZR 3733   4.501   2.473   1.858
 1245ZrO2    ZO 3734   4.573   2.585   1.673
 1245ZrO2    ZO 3735   4.607   2.331   1.500
 1246ZrO2    ZR 3736   4.718   2.473   1.598
 1246ZrO2    ZO 3737   4.613   2.331   1.760
 1246ZrO2    ZO 3738   4.646   2.585   1.933
 1247ZrO2    ZR 3739   4.765   2.238   1.900
 1247ZrO2    ZO 3740   4.836   2.125   1.565
 1247ZrO2    ZO 3741   4.870   2.380   1.738
 1248ZrO2    ZR 3742   4.981   2.238   1.640
 1248ZrO2    ZO 3743   4.876   2.380   1.997
 1248ZrO2    ZO 3744   4.910   2.125   1.824
 1249ZrO2    ZR 3745   5.028   2.473   1.858
 1249ZrO2    ZO 3746   5.100   2.585   1.673
 1249ZrO2    ZO 3747   5.133   2.331   1.500
 1250ZrO2    ZR 3748   5.245   2.473   1.598
 1250ZrO2    ZO 3749   5.139   2.331   1.760
 1250ZrO2    ZO 3750   5.173   2.585   1.933
 1251ZrO2    ZR 3751   3.974   0.379   2.378
 1251ZrO2    ZO 3752   4.046   0.491   2.193
 1251ZrO2    ZO 3753   4.080   0.237   2.020
 1252ZrO2    ZR 3754   4.191   0.379   2.118
 1252ZrO2    ZO 3755   4.086   0.237   2.280
 1252ZrO2    ZO 3756   4.120   0.491   2.453
 1253ZrO2    ZR 3757   4.238   0.145   2.419
 1253ZrO2    ZO 3758   4.309   0.032   2.084
 1253ZrO2    ZO 3759   4.343   0.286   2.257
 1254ZrO2    ZR 3760   4.455   0.145   2.159
 1254ZrO2    ZO 3761   4.349   0.286   2.517
 1254ZrO2    ZO 3762   4.383   0.032   2.344
 1255ZrO2    ZR 3763   4.501   0.379   2.378
 1255ZrO2    ZO 3764   4.573   0.491   2.193
 1255ZrO2    ZO 3765   4.607   0.237   2.020
 1256ZrO2    ZR 3766   4.718   0.379   2.118
 1256ZrO2    ZO 3767   4.613   0.237   2.280
 1256ZrO2    ZO 3768   4.646   0.491   2.453
 1257ZrO2    ZR 3769   4.765   0.145   2.419
 1257ZrO2    ZO 3770   4.836   0.032   2.084
 1257ZrO2    ZO 3771   4.870   0.286   2.257
 1258ZrO2    ZR 3772   4.981   0.145   2.159
 1258ZrO2    ZO 3773   4.876   0.286   2.517
 1258ZrO2    ZO 3774   4.910   0.032   2.344
 1259ZrO2    ZR 3775   5.028   0.379   2.378
 1259ZrO2    ZO 3776   5.100   0.491   2.193
 1259ZrO2    ZO 3777   5.133   0.237   2.020
 1260ZrO2    ZR 3778   5.245   0.379   2.118
 1260ZrO2    ZO 3779   5.139   0.237   2.280
 1260ZrO2    ZO 3780   5.173   0.491   2.453
 1261ZrO2    ZR 3781   3.974   0.902   2.378
 1261ZrO2    ZO 3782   4.046   1.015   2.193
 1261ZrO2    ZO 3783   4.080   0.761   2.020
 1262ZrO2    ZR 3784   4.191   0.902   2.118
 1262ZrO2    ZO 3785   4.086   0.761   2.280
 1262ZrO2    ZO 3786   4.120   1.015   2.453
 1263ZrO2    ZR 3787   4.238   0.668   2.419
 1263ZrO2    ZO 3788   4.309   0.555   2.084
 1263ZrO2    ZO 3789   4.343   0.810   2.257
 1264ZrO2    ZR 3790   4.455   0.668   2.159
 1264ZrO2    ZO 3791   4.349   0.810   2.517
 1264ZrO2    ZO 3792   4.383   0.555   2.344
 1265ZrO2    ZR 3793   4.501   0.902   2.378
 1265ZrO2    ZO 3794   4.573   1.015   2.193
 1265ZrO2    ZO 3795   4.607   0.761   2.020
 1266ZrO2    ZR 3796   4.718   0.902   2.118
 1266ZrO2    ZO 3797   4.613   0.761   2.280
 1266ZrO2    ZO 3798   4.646   1.015   2.453
 1267ZrO2    ZR 3799   4.765   0.668   2.419
 1267ZrO2    ZO 3800   4.836   0.555   2.084
 1267ZrO2    ZO 3801   4.870   0.810   2.257
 1268ZrO2    ZR 3802   4.981   0.668   2.159
 1268ZrO2    ZO 3803   4.876   0.810   2.517
 1268ZrO2    ZO 3804   4.910   0.555   2.344
 1269ZrO2    ZR 3805   5.028   0.902   2.378
 1269ZrO2    ZO 3806   5.100   1.015   2.193
 1269ZrO2    ZO 3807   5.133   0.761   2.020
 1270ZrO2    ZR 3808   5.245   0.902   2.118
 1270ZrO2    ZO 3809   5.139   0.761   2.280
 1270ZrO2    ZO 3810   5.173   1.015   2.453
 1271ZrO2    ZR 3811   3.974   1.426   2.378
 1271ZrO2    ZO 3812   4.046   1.538   2.193
 1271ZrO2    ZO 3813   4.080   1.284   2.020
 1272ZrO2    ZR 3814   4.191   1.426   2.118
 1272ZrO2    ZO 3815   4.086   1.284   2.280
 1272ZrO2    ZO 3816   4.120   1.538   2.453
 1273ZrO2    ZR 3817   4.238   1.191   2.419
 1273ZrO2    ZO 3818   4.309   1.079   2.084
 1273ZrO2    ZO 3819   4.343   1.333   2.257
 1274ZrO2    ZR 3820   4.455   1.191   2.159
 1274ZrO2    ZO 3821   4.349   1.333   2.517
 1274ZrO2    ZO 3822   4.383   1.079   2.344
 1275ZrO2    ZR 3823   4.501   1.426   2.378
 1275ZrO2    ZO 3824   4.573   1.538   2.193
 1275ZrO2    ZO 3825   4.607   1.284   2.020
 1276ZrO2    ZR 3826   4.718   1.426   2.118
 1276ZrO2    ZO 3827   4.613   1.284   2.280
 1276ZrO2    ZO 3828   4.646   1.538   2.453
 1277ZrO2    ZR 3829   4.765   1.191   2.419
 1277ZrO2    ZO 3830   4.836   1.079   2.084
 1277ZrO2    ZO 3831   4.870   1.333   2.257
 1278ZrO2    ZR 3832   4.981   1.191   2.159
 1278ZrO2    ZO 3833   4.876   1.333   2.517
 1278ZrO2    ZO 3834   4.910   1.079   2.344
 1279ZrO2    ZR 3835   5.028   1.426   2.378
 1279ZrO2    ZO 3836   5.100   1.538   2.193
 1279ZrO2    ZO 3837   5.133   1.284   2.020
 1280ZrO2    ZR 3838   5.245   1.426   2.118
 1280ZrO2    ZO 3839   5.139   1.284   2.280
 1280ZrO2    ZO 3840   5.173   1.538   2.453
 1281ZrO2    ZR 3841   3.974   1.949   2.378
 1281ZrO2    ZO 3842   4.046   2.062   2.193
 1281ZrO2    ZO 3843   4.080   1.807   2.020
 1282ZrO2    ZR 3844   4.191   1.949   2.118
 1282ZrO2    ZO 3845   4.086   1.807   2.280
 1282ZrO2    ZO 3846   4.120   2.062   2.453
 1283ZrO2    ZR 3847   4.238   1.715   2.419
 1283ZrO2    ZO 3848   4.309   1.602   2.084
 1283ZrO2    ZO 3849   4.343   1.857   2.257
 1284ZrO2    ZR 3850   4.455   1.715   2.159
 1284ZrO2    ZO 3851   4.349   1.857   2.517
 1284ZrO2    ZO 3852   4.383   1.602   2.344
 1285ZrO2    ZR 3853   4.501   1.949   2.378
 1285ZrO2    ZO 3854   4.573   2.062   2.193
 1285ZrO2    ZO 3855   4.607   1.807   2.020
 1286ZrO2    ZR 3856   4.718   1.949   2.118
 1286ZrO2    ZO 3857   4.613   1.807   2.280
 1286ZrO2    ZO 3858   4.646   2.062   2.453
 1287ZrO2    ZR 3859   4.765   1.715   2.419
 1287ZrO2    ZO 3860   4.836   1.602   2.084
 1287ZrO2    ZO 3861   4.870   1.857   2.257
 1288ZrO2    ZR 3862   4.981   1.715   2.159
 1288ZrO2    ZO 3863   4.876   1.857   2.517
 1288ZrO2    ZO 3864   4.910   1.602   2.344
 1289ZrO2    ZR 3865   5.028   1.949   2.378
 1289ZrO2    ZO 3866   5.100   2.062   2.193
 1289ZrO2    ZO 3867   5.133   1.807   2.020
 1290ZrO2    ZR 3868   5.245   1.949   2.118
 1290ZrO2    ZO 3869   5.139   1.807   2.280
 1290ZrO2    ZO 3870   5.173   2.062   2.453
 1291ZrO2    ZR 3871   3.974   2.473   2.378
 1291ZrO2    ZO 3872   4.046   2.585   2.193
 1291ZrO2    ZO 3873   4.080   2.331   2.020
 1292ZrO2    ZR 3874   4.191   2.473   2.118
 1292ZrO2    ZO 3875   4.086   2.331   2.280
 1292ZrO2    ZO 3876   4.120   2.585   2.453
 1293ZrO2    ZR 3877   4.238   2.238   2.419
 1293ZrO2    ZO 3878   4.309   2.125   2.084
 1293ZrO2    ZO 3879   4.343   2.380   2.257
 1294ZrO2    ZR 3880   4.455   2.238   2.159
 1294ZrO2    ZO 3881   4.349   2.380   2.517
 1294ZrO2    ZO 3882   4.383   2.125   2.344
 1295ZrO2    ZR 3883   4.501   2.473   2.378
 1295ZrO2    ZO 3884   4.573   2.585   2.193
 1295ZrO2    ZO 3885   4.607   2.331   2.020
 1296ZrO2    ZR 3886   4.718   2.473   2.118
 1296ZrO2    ZO 3887   4.613   2.331   2.280
 1296ZrO2    ZO 3888   4.646   2.585   2.453
 1297ZrO2    ZR 3889   4.765   2.238   2.419
 1297ZrO2    ZO 3890   4.836   2.125   2.084
 1297ZrO2    ZO 3891   4.870   2.380   2.257
 1298ZrO2    ZR 3892   4.981   2.238   2.159
 1298ZrO2    ZO 3893   4.876   2.380   2.517
 1298ZrO2    ZO 3894   4.910   2.125   2.344
 1299ZrO2    ZR 3895   5.028   2.473   2.378
 1299ZrO2    ZO 3896   5.100   2.585   2.193
 1299ZrO2    ZO 3897   5.133   2.331   2.020
 1300ZrO2    ZR 3898   5.245   2.473   2.118
 1300ZrO2    ZO 3899   5.139   2.331   2.280
 1300ZrO2    ZO 3900   5.173   2.585   2.453
 1301ZrO2    ZR 3901   3.974   0.379   2.898
 1301ZrO2    ZO 3902   4.046   0.491   2.713
 1301ZrO2    ZO 3903   4.080   0.237   2.540
 1302ZrO2    ZR 3904   4.191   0.379   2.638
 1302ZrO2    ZO 3905   4.086   0.237   2.800
 1302ZrO2    ZO 3906   4.120   0.491   2.973
 1303ZrO2    ZR 3907   4.238   0.145   2.939
 1303ZrO2    ZO 3908   4.309   0.032   2.604
 1303ZrO2    ZO 3909   4.343   0.286   2.777
 1304ZrO2    ZR 3910   4.455   0.145   2.679
 1304ZrO2    ZO 3911   4.349   0.286   3.037
 1304ZrO2    ZO 3912   4.383   0.032   2.864
 1305ZrO2    ZR 3913   4.501   0.379   2.898
 1305ZrO2    ZO 3914   4.573   0.491   2.713
 1305ZrO2    ZO 3915   4.607   0.237   2.540
 1306ZrO2    ZR 3916   4.718   0.379   2.638
 1306ZrO2    ZO 3917   4.613   0.237   2.800
 1306ZrO2    ZO 3918   4.646   0.491   2.973
 1307ZrO2    ZR 3919   4.765   0.145   2.939
 1307ZrO2    ZO 3920   4.836   0.032   2.604
 1307ZrO2    ZO 3921   4.870   0.286   2.777
 1308ZrO2    ZR 3922   4.981   0.145   2.679
 1308ZrO2    ZO 3923   4.876   0.286   3.037
 1308ZrO2    ZO 3924   4.910   0.032   2.864
 1309ZrO2    ZR 3925   5.028   0.379   2.898
 1309ZrO2    ZO 3926   5.100   0.491   2.713
 1309ZrO2    ZO 3927   5.133   0.237   2.540
 1310ZrO2    ZR 3928   5.245   0.379   2.638
 1310ZrO2    ZO 3929   5.139   0.237   2.800
 1310ZrO2    ZO 3930   5.173   0.491   2.973
 1311ZrO2    ZR 3931   3.974   0.902   2.898
 1311ZrO2    ZO 3932   4.046   1.015   2.713
 1311ZrO2    ZO 3933   4.080   0.761   2.540
 1312ZrO2    ZR 3934   4.191   0.902   2.638
 1312ZrO2    ZO 3935   4.086   0.761   2.800
 1312ZrO2    ZO 3936   4.120   1.015   2.973
 1313ZrO2    ZR 3937   4.238   0.668   2.939
 1313ZrO2    ZO 3938   4.309   0.555   2.604
 1313ZrO2    ZO 3939   4.343   0.810   2.777
 1314ZrO2    ZR 3940   4.455   0.668   2.679
 1314ZrO2    ZO 3941   4.349   0.810   3.037
 1314ZrO2    ZO 3942   4.383   0.555   2.864
 1315ZrO2    ZR 3943   4.501   0.902   2.898
 1315ZrO2    ZO 3944   4.573   1.015   2.713
 1315ZrO2    ZO 3945   4.607   0.761   2.540
 1316ZrO2    ZR 3946   4.718   0.902   2.638
 1316ZrO2    ZO 3947   4.613   0.761   2.800
 1316ZrO2    ZO 3948   4.646   1.015   2.973
 1317ZrO2    ZR 3949   4.765   0.668   2.939
 1317ZrO2    ZO 3950   4.836   0.555   2.604
 1317ZrO2    ZO 3951   4.870   0.810   2.777
 1318ZrO2    ZR 3952   4.981   0.668   2.679
 1318ZrO2    ZO 3953   4.876   0.810   3.037
 1318ZrO2    ZO 3954   4.910   0.555   2.864
 1319ZrO2    ZR 3955   5.028   0.902   2.898
 1319ZrO2    ZO 3956   5.100   1.015   2.713
 1319ZrO2    ZO 3957   5.133   0.761   2.540
 1320ZrO2    ZR 3958   5.245   0.902   2.638
 1320ZrO2    ZO 3959   5.139   0.761   2.800
 1320ZrO2    ZO 3960   5.173   1.015   2.973
 1321ZrO2    ZR 3961   3.974   1.426   2.898
 1321ZrO2    ZO 3962   4.046   1.538   2.713
 1321ZrO2    ZO 3963   4.080   1.284   2.540
 1322ZrO2    ZR 3964   4.191   1.426   2.638
 1322ZrO2    ZO 3965   4.086   1.284   2.800
 1322ZrO2    ZO 3966   4.120   1.538   2.973
 1323ZrO2    ZR 3967   4.238   1.191   2.939
 1323ZrO2    ZO 3968   4.309   1.079   2.604
 1323ZrO2    ZO 3969   4.343   1.333   2.777
 1324ZrO2    ZR 3970   4.455   1.191   2.679
 1324ZrO2    ZO 3971   4.349   1.333   3.037
 1324ZrO2    ZO 3972   4.383   1.079   2.864
 1325ZrO2    ZR 3973   4.501   1.426   2.898
 1325ZrO2    ZO 3974   4.573   1.538   2.713
 1325ZrO2    ZO 3975   4.607   1.284   2.540
 1326ZrO2    ZR 3976   4.718   1.426   2.638
 1326ZrO2    ZO 3977   4.613   1.284   2.800
 1326ZrO2    ZO 3978   4.646   1.538   2.973
 1327ZrO2    ZR 3979   4.765   1.191   2.939
 1327ZrO2    ZO 3980   4.836   1.079   2.604
 1327ZrO2    ZO 3981   4.870   1.333   2.777
 1328ZrO2    ZR 3982   4.981   1.191   2.679
 1328ZrO2    ZO 3983   4.876   1.333   3.037
 1328ZrO2    ZO 3984   4.910   1.079   2.864
 1329ZrO2    ZR 3985   5.028   1.426   2.898
 1329ZrO2    ZO 3986   5.100   1.538   2.713
 1329ZrO2    ZO 3987   5.133   1.284   2.540
 1330ZrO2    ZR 3988   5.245   1.426   2.638
 1330ZrO2    ZO 3989   5.139   1.284   2.800
 1330ZrO2    ZO 3990   5.173   1.538   2.973
 1331ZrO2    ZR 3991   3.974   1.949   2.898
 1331ZrO2    ZO 3992   4.046   2.062   2.713
 1331ZrO2    ZO 3993   4.080   1.807   2.540
 1332ZrO2    ZR 3994   4.191   1.949   2.638
 1332ZrO2    ZO 3995   4.086   1.807   2.800
 1332ZrO2    ZO 3996   4.120   2.062   2.973
 1333ZrO2    ZR 3997   4.238   1.715   2.939
 1333ZrO2    ZO 3998   4.309   1.602   2.604
 1333ZrO2    ZO 3999   4.343   1.857   2.777
 1334ZrO2    ZR 4000   4.455   1.715   2.679
 1334ZrO2    ZO 4001   4.349   1.857   3.037
 1334ZrO2    ZO 4002   4.383   1.602   2.864
 1335ZrO2    ZR 4003   4.501   1.949   2.898
 1335ZrO2    ZO 4004   4.573   2.062   2.713
 1335ZrO2    ZO 4005   4.607   1.807   2.540
 1336ZrO2    ZR 4006   4.718   1.949   2.638
 1336ZrO2    ZO 4007   4.613   1.807   2.800
 1336ZrO2    ZO 4008   4.646   2.062   2.973
 1337ZrO2    ZR 4009   4.765   1.715   2.939
 1337ZrO2    ZO 4010   4.836   1.602   2.604
 1337ZrO2    ZO 4011   4.870   1.857   2.777
 1338ZrO2    ZR 4012   4.981   1.715   2.679
 1338ZrO2    ZO 4013   4.876   1.857   3.037
 1338ZrO2    ZO 4014   4.910   1.602   2.864
 1339ZrO2    ZR 4015   5.028   1.949   2.898
 1339ZrO2    ZO 4016   5.100   2.062   2.713
 1339ZrO2    ZO 4017   5.133   1.807   2.540
 1340ZrO2    ZR 4018   5.245   1.949   2.638
 1340ZrO2    ZO 4019   5.139   1.807   2.800
 1340ZrO2    ZO 4020   5.173   2.062   2.973
 1341ZrO2    ZR 4021   3.974   2.473   2.898
 1341ZrO2    ZO 4022   4.046   2.585   2.713
 1341ZrO2    ZO 4023   4.080   2.331   2.540
 1342ZrO2    ZR 4024   4.191   2.473   2.638
 1342ZrO2    ZO 4025   4.086   2.331   2.800
 1342ZrO2    ZO 4026   4.120   2.585   2.973
 1343ZrO2    ZR 4027   4.238   2.238   2.939
 1343ZrO2    ZO 4028   4.309   2.125   2.604
 1343ZrO2    ZO 4029   4.343   2.380   2.777
 1344ZrO2    ZR 4030   4.455   2.238   2.679
 1344ZrO2    ZO 4031   4.349   2.380   3.037
 1344ZrO2    ZO 4032   4.383   2.125   2.864
 1345ZrO2    ZR 4033   4.501   2.473   2.898
 1345ZrO2    ZO 4034   4.573   2.585   2.713
 1345ZrO2    ZO 4035   4.607   2.331   2.540
 1346ZrO2    ZR 4036   4.718   2.473   2.638
 1346ZrO2    ZO 4037   4.613   2.331   2.800
 1346ZrO2    ZO 4038   4.646   2.585   2.973
 1347ZrO2    ZR 4039   4.765   2.238   2.939
 1347ZrO2    ZO 4040   4.836   2.125   2.604
 1347ZrO2    ZO 4041   4.870   2.380   2.777
 1348ZrO2    ZR 4042   4.981   2.238   2.679
 1348ZrO2    ZO 4043   4.876   2.380   3.037
 1348ZrO2    ZO 4044   4.910   2.125   2.864
 1349ZrO2    ZR 4045   5.028   2.473   2.898
 1349ZrO2    ZO 4046   5.100   2.585   2.713
 1349ZrO2    ZO 4047   5.133   2.331   2.540
 1350ZrO2    ZR 4048   5.245   2.473   2.638
 1350ZrO2    ZO 4049   5.139   2.331   2.800
 1350ZrO2    ZO 4050   5.173   2.585   2.973
 1351ZrO2    ZR 4051   3.974   0.379   3.417
 1351ZrO2    ZO 4052   4.046   0.491   3.232
 1351ZrO2    ZO 4053   4.080   0.237   3.059
 1352ZrO2    ZR 4054   4.191   0.379   3.158
 1352ZrO2    ZO 4055   4.086   0.237   3.319
 1352ZrO2    ZO 4056   4.120   0.491   3.492
 1353ZrO2    ZR 4057   4.238   0.145   3.459
 1353ZrO2    ZO 4058   4.309   0.032   3.124
 1353ZrO2    ZO 4059   4.343   0.286   3.297
 1354ZrO2    ZR 4060   4.455   0.145   3.199
 1354ZrO2    ZO 4061   4.349   0.286   3.557
 1354ZrO2    ZO 4062   4.383   0.032   3.384
 1355ZrO2    ZR 4063   4.501   0.379   3.417
 1355ZrO2    ZO 4064   4.573   0.491   3.232
 1355ZrO2    ZO 4065   4.607   0.237   3.059
 1356ZrO2    ZR 4066   4.718   0.379   3.158
 1356ZrO2    ZO 4067   4.613   0.237   3.319
 1356ZrO2    ZO 4068   4.646   0.491   3.492
 1357ZrO2    ZR 4069   4.765   0.145   3.459
 1357ZrO2    ZO 4070   4.836   0.032   3.124
 1357ZrO2    ZO 4071   4.870   0.286   3.297
 1358ZrO2    ZR 4072   4.981   0.145   3.199
 1358ZrO2    ZO 4073   4.876   0.286   3.557
 1358ZrO2    ZO 4074   4.910   0.032   3.384
 1359ZrO2    ZR 4075   5.028   0.379   3.417
 1359ZrO2    ZO 4076   5.100   0.491   3.232
 1359ZrO2    ZO 4077   5.133   0.237   3.059
 1360ZrO2    ZR 4078   5.245   0.379   3.158
 1360ZrO2    ZO 4079   5.139   0.237   3.319
 1360ZrO2    ZO 4080   5.173   0.491   3.492
 1361ZrO2    ZR 4081   3.974   0.902   3.417
 1361ZrO2    ZO 4082   4.046   1.015   3.232
 1361ZrO2    ZO 4083   4.080   0.761   3.059
 1362ZrO2    ZR 4084   4.191   0.902   3.158
 1362ZrO2    ZO 4085   4.086   0.761   3.319
 1362ZrO2    ZO 4086   4.120   1.015   3.492
 1363ZrO2    ZR 4087   4.238   0.668   3.459
 1363ZrO2    ZO 4088   4.309   0.555   3.124
 1363ZrO2    ZO 4089   4.343   0.810   3.297
 1364ZrO2    ZR 4090   4.455   0.668   3.199
 1364ZrO2    ZO 4091   4.349   0.810   3.557
 1364ZrO2    ZO 4092   4.383   0.555   3.384
 1365ZrO2    ZR 4093   4.501   0.902   3.417
 1365ZrO2    ZO 4094   4.573   1.015   3.232
 1365ZrO2    ZO 4095   4.607   0.761   3.059
 1366ZrO2    ZR 4096   4.718   0.902   3.158
 1366ZrO2    ZO 4097   4.613   0.761   3.319
 1366ZrO2    ZO 4098   4.646   1.015   3.492
 1367ZrO2    ZR 4099   4.765   0.668   3.459
 1367ZrO2    ZO 4100   4.836   0.555   3.124
 1367ZrO2    ZO 4101   4.870   0.810   3.297
 1368ZrO2    ZR 4102   4.981   0.668   3.199
 1368ZrO2    ZO 4103   4.876   0.810   3.557
 1368ZrO2    ZO 4104   4.910   0.555   3.384
 1369ZrO2    ZR 4105   5.028   0.902   3.417
 1369ZrO2    ZO 4106   5.100   1.015   3.232
 1369ZrO2    ZO 4107   5.133   0.761   3.059
 1370ZrO2    ZR 4108   5.245   0.902   3.158
 1370ZrO2    ZO 4109   5.139   0.761   3.319
 1370ZrO2    ZO 4110   5.173   1.015   3.492
 1371ZrO2    ZR 4111   3.974   1.426   3.417
 1371ZrO2    ZO 4112   4.046   1.538   3.232
 1371ZrO2    ZO 4113   4.080   1.284   3.059
 1372ZrO2    ZR 4114   4.191   1.426   3.158
 1372ZrO2    ZO 4115   4.086   1.284   3.319
 1372ZrO2    ZO 4116   4.120   1.538   3.492
 1373ZrO2    ZR 4117   4.238   1.191   3.459
 1373ZrO2    ZO 4118   4.309   1.079   3.124
 1373ZrO2    ZO 4119   4.343   1.333   3.297
 1374ZrO2    ZR 4120   4.455   1.191   3.199
 1374ZrO2    ZO 4121   4.349   1.333   3.557
 1374ZrO2    ZO 4122   4.383   1.079   3.384
 1375ZrO2    ZR 4123   4.501   1.426   3.417
 1375ZrO2    ZO 4124   4.573   1.538   3.232
 1375ZrO2    ZO 4125   4.607   1.284   3.059
 1376ZrO2    ZR 4126   4.718   1.426   3.158
 1376ZrO2    ZO 4127   4.613   1.284   3.319
 1376ZrO2    ZO 4128   4.646   1.538   3.492
 1377ZrO2    ZR 4129   4.765   1.191   3.459
 1377ZrO2    ZO 4130   4.836   1.079   3.124
 1377ZrO2    ZO 4131   4.870   1.333   3.297
 1378ZrO2    ZR 4132   4.981   1.191   3.199
 1378ZrO2    ZO 4133   4.876   1.333   3.557
 1378ZrO2    ZO 4134   4.910   1.079   3.384
 1379ZrO2    ZR 4135   5.028   1.426   3.417
 1379ZrO2    ZO 4136   5.100   1.538   3.232
 1379ZrO2    ZO 4137   5.133   1.284   3.059
 1380ZrO2    ZR 4138   5.245   1.426   3.158
 1380ZrO2    ZO 4139   5.139   1.284   3.319
 1380ZrO2    ZO 4140   5.173   1.538   3.492
 1381ZrO2    ZR 4141   3.974   1.949   3.417
 1381ZrO2    ZO 4142   4.046   2.062   3.232
 1381ZrO2    ZO 4143   4.080   1.807   3.059
 1382ZrO2    ZR 4144   4.191   1.949   3.158
 1382ZrO2    ZO 4145   4.086   1.807   3.319
 1382ZrO2    ZO 4146   4.120   2.062   3.492
 1383ZrO2    ZR 4147   4.238   1.715   3.459
 1383ZrO2    ZO 4148   4.309   1.602   3.124
 1383ZrO2    ZO 4149   4.343   1.857   3.297
 1384ZrO2    ZR 4150   4.455   1.715   3.199
 1384ZrO2    ZO 4151   4.349   1.857   3.557
 1384ZrO2    ZO 4152   4.383   1.602   3.384
 1385ZrO2    ZR 4153   4.501   1.949   3.417
 1385ZrO2    ZO 4154   4.573   2.062   3.232
 1385ZrO2    ZO 4155   4.607   1.807   3.059
 1386ZrO2    ZR 4156   4.718   1.949   3.158
 1386ZrO2    ZO 4157   4.613   1.807   3.319
 1386ZrO2    ZO 4158   4.646   2.062   3.492
 1387ZrO2    ZR 4159   4.765   1.715   3.459
 1387ZrO2    ZO 4160   4.836   1.602   3.124
 1387ZrO2    ZO 4161   4.870   1.857   3.297
 1388ZrO2    ZR 4162   4.981   1.715   3.199
 1388ZrO2    ZO 4163   4.876   1.857   3.557
 1388ZrO2    ZO 4164   4.910   1.602   3.384
 1389ZrO2    ZR 4165   5.028   1.949   3.417
 1389ZrO2    ZO 4166   5.100   2.062   3.232
 1389ZrO2    ZO 4167   5.133   1.807   3.059
 1390ZrO2    ZR 4168   5.245   1.949   3.158
 1390ZrO2    ZO 4169   5.139   1.807   3.319
 1390ZrO2    ZO 4170   5.173   2.062   3.492
 1391ZrO2    ZR 4171   3.974   2.473   3.417
 1391ZrO2    ZO 4172   4.046   2.585   3.232
 1391ZrO2    ZO 4173   4.080   2.331   3.059
 1392ZrO2    ZR 4174   4.191   2.473   3.158
 1392ZrO2    ZO 4175   4.086   2.331   3.319
 1392ZrO2    ZO 4176   4.120   2.585   3.492
 1393ZrO2    ZR 4177   4.238   2.238   3.459
 1393ZrO2    ZO 4178   4.309   2.125   3.124
 1393ZrO2    ZO 4179   4.343   2.380   3.297
 1394ZrO2    ZR 4180   4.455   2.238   3.199
 1394ZrO2    ZO 4181   4.349   2.380   3.557
 1394ZrO2    ZO 4182   4.383   2.125   3.384
 1395ZrO2    ZR 4183   4.501   2.473   3.417
 1395ZrO2    ZO 4184   4.573   2.585   3.232
 1395ZrO2    ZO 4185   4.607   2.331   3.059
 1396ZrO2    ZR 4186   4.718   2.473   3.158
 1396ZrO2    ZO 4187   4.613   2.331   3.319
 1396ZrO2    ZO 4188   4.646   2.585   3.492
 1397ZrO2    ZR 4189   4.765   2.238   3.459
 1397ZrO2    ZO 4190   4.836   2.125   3.124
 1397ZrO2    ZO 4191   4.870   2.380   3.297
 1398ZrO2    ZR 4192   4.981   2.238   3.199
 1398ZrO2    ZO 4193   4.876   2.380   3.557
 1398ZrO2    ZO 4194   4.910   2.125   3.384
 1399ZrO2    ZR 4195   5.028   2.473   3.417
 1399ZrO2    ZO 4196   5.100   2.585   3.232
 1399ZrO2    ZO 4197   5.133   2.331   3.059
 1400ZrO2    ZR 4198   5.245   2.473   3.158
 1400ZrO2    ZO 4199   5.139   2.331   3.319
 1400ZrO2    ZO 4200   5.173   2.585   3.492
 1401ZrO2    ZR 4201   3.974   2.996   1.858
 1401ZrO2    ZO 4202   4.046   3.109   1.673
 1401ZrO2    ZO 4203   4.080   2.854   1.500
 1402ZrO2    ZR 4204   4.191   2.996   1.598
 1402ZrO2    ZO 4205   4.086   2.854   1.760
 1402ZrO2    ZO 4206   4.120   3.109   1.933
 1403ZrO2    ZR 4207   4.238   2.761   1.900
 1403ZrO2    ZO 4208   4.309   2.649   1.565
 1403ZrO2    ZO 4209   4.343   2.903   1.738
 1404ZrO2    ZR 4210   4.455   2.761   1.640
 1404ZrO2    ZO 4211   4.349   2.903   1.997
 1404ZrO2    ZO 4212   4.383   2.649   1.824
 1405ZrO2    ZR 4213   4.501   2.996   1.858
 1405ZrO2    ZO 4214   4.573   3.109   1.673
 1405ZrO2    ZO 4215   4.607   2.854   1.500
 1406ZrO2    ZR 4216   4.718   2.996   1.598
 1406ZrO2    ZO 4217   4.613   2.854   1.760
 1406ZrO2    ZO 4218   4.646   3.109   1.933
 1407ZrO2    ZR 4219   4.765   2.761   1.900
 1407ZrO2    ZO 4220   4.836   2.649   1.565
 1407ZrO2    ZO 4221   4.870   2.903   1.738
 1408ZrO2    ZR 4222   4.981   2.761   1.640
 1408ZrO2    ZO 4223   4.876   2.903   1.997
 1408ZrO2    ZO 4224   4.910   2.649   1.824
 1409ZrO2    ZR 4225   5.028   2.996   1.858
 1409ZrO2    ZO 4226   5.100   3.109   1.673
 1409ZrO2    ZO 4227   5.133   2.854   1.500
 1410ZrO2    ZR 4228   5.245   2.996   1.598
 1410ZrO2    ZO 4229   5.139   2.854   1.760
 1410ZrO2    ZO 4230   5.173   3.109   1.933
 1411ZrO2    ZR 4231   3.974   3.519   1.858
 1411ZrO2    ZO 4232   4.046   3.632   1.673
 1411ZrO2    ZO 4233   4.080   3.378   1.500
 1412ZrO2    ZR 4234   4.191   3.519   1.598
 1412ZrO2    ZO 4235   4.086   3.378   1.760
 1412ZrO2    ZO 4236   4.120   3.632   1.933
 1413ZrO2    ZR 4237   4.238   3.285   1.900
 1413ZrO2    ZO 4238   4.309   3.172   1.565
 1413ZrO2    ZO 4239   4.343   3.427   1.738
 1414ZrO2    ZR 4240   4.455   3.285   1.640
 1414ZrO2    ZO 4241   4.349   3.427   1.997
 1414ZrO2    ZO 4242   4.383   3.172   1.824
 1415ZrO2    ZR 4243   4.501   3.519   1.858
 1415ZrO2    ZO 4244   4.573   3.632   1.673
 1415ZrO2    ZO 4245   4.607   3.378   1.500
 1416ZrO2    ZR 4246   4.718   3.519   1.598
 1416ZrO2    ZO 4247   4.613   3.378   1.760
 1416ZrO2    ZO 4248   4.646   3.632   1.933
 1417ZrO2    ZR 4249   4.765   3.285   1.900
 1417ZrO2    ZO 4250   4.836   3.172   1.565
 1417ZrO2    ZO 4251   4.870   3.427   1.738
 1418ZrO2    ZR 4252   4.981   3.285   1.640
 1418ZrO2    ZO 4253   4.876   3.427   1.997
 1418ZrO2    ZO 4254   4.910   3.172   1.824
 1419ZrO2    ZR 4255   5.028   3.519   1.858
 1419ZrO2    ZO 4256   5.100   3.632   1.673
 1419ZrO2    ZO 4257   5.133   3.378   1.500
 1420ZrO2    ZR 4258   5.245   3.519   1.598
 1420ZrO2    ZO 4259   5.139   3.378   1.760
 1420ZrO2    ZO 4260   5.173   3.632   1.933
 1421ZrO2    ZR 4261   3.974   4.043   1.858
 1421ZrO2    ZO 4262   4.046   4.155   1.673
 1421ZrO2    ZO 4263   4.080   3.901   1.500
 1422ZrO2    ZR 4264   4.191   4.043   1.598
 1422ZrO2    ZO 4265   4.086   3.901   1.760
 1422ZrO2    ZO 4266   4.120   4.155   1.933
 1423ZrO2    ZR 4267   4.238   3.808   1.900
 1423ZrO2    ZO 4268   4.309   3.696   1.565
 1423ZrO2    ZO 4269   4.343   3.950   1.738
 1424ZrO2    ZR 4270   4.455   3.808   1.640
 1424ZrO2    ZO 4271   4.349   3.950   1.997
 1424ZrO2    ZO 4272   4.383   3.696   1.824
 1425ZrO2    ZR 4273   4.501   4.043   1.858
 1425ZrO2    ZO 4274   4.573   4.155   1.673
 1425ZrO2    ZO 4275   4.607   3.901   1.500
 1426ZrO2    ZR 4276   4.718   4.043   1.598
 1426ZrO2    ZO 4277   4.613   3.901   1.760
 1426ZrO2    ZO 4278   4.646   4.155   1.933
 1427ZrO2    ZR 4279   4.765   3.808   1.900
 1427ZrO2    ZO 4280   4.836   3.696   1.565
 1427ZrO2    ZO 4281   4.870   3.950   1.738
 1428ZrO2    ZR 4282   4.981   3.808   1.640
 1428ZrO2    ZO 4283   4.876   3.950   1.997
 1428ZrO2    ZO 4284   4.910   3.696   1.824
 1429ZrO2    ZR 4285   5.028   4.043   1.858
 1429ZrO2    ZO 4286   5.100   4.155   1.673
 1429ZrO2    ZO 4287   5.133   3.901   1.500
 1430ZrO2    ZR 4288   5.245   4.043   1.598
 1430ZrO2    ZO 4289   5.139   3.901   1.760
 1430ZrO2    ZO 4290   5.173   4.155   1.933
 1431ZrO2    ZR 4291   3.974   4.566   1.858
 1431ZrO2    ZO 4292   4.046   4.679   1.673
 1431ZrO2    ZO 4293   4.080   4.424   1.500
 1432ZrO2    ZR 4294   4.191   4.566   1.598
 1432ZrO2    ZO 4295   4.086   4.424   1.760
 1432ZrO2    ZO 4296   4.120   4.679   1.933
 1433ZrO2    ZR 4297   4.238   4.332   1.900
 1433ZrO2    ZO 4298   4.309   4.219   1.565
 1433ZrO2    ZO 4299   4.343   4.473   1.738
 1434ZrO2    ZR 4300   4.455   4.332   1.640
 1434ZrO2    ZO 4301   4.349   4.473   1.997
 1434ZrO2    ZO 4302   4.383   4.219   1.824
 1435ZrO2    ZR 4303   4.501   4.566   1.858
 1435ZrO2    ZO 4304   4.573   4.679   1.673
 1435ZrO2    ZO 4305   4.607   4.424   1.500
 1436ZrO2    ZR 4306   4.718   4.566   1.598
 1436ZrO2    ZO 4307   4.613   4.424   1.760
 1436ZrO2    ZO 4308   4.646   4.679   1.933
 1437ZrO2    ZR 4309   4.765   4.332   1.900
 1437ZrO2    ZO 4310   4.836   4.219   1.565
 1437ZrO2    ZO 4311   4.870   4.473   1.738
 1438ZrO2    ZR 4312   4.981   4.332   1.640
 1438ZrO2    ZO 4313   4.876   4.473   1.997
 1438ZrO2    ZO 4314   4.910   4.219   1.824
 1439ZrO2    ZR 4315   5.028   4.566   1.858
 1439ZrO2    ZO 4316   5.100   4.679   1.673
 1439ZrO2    ZO 4317   5.133   4.424   1.500
 1440ZrO2    ZR 4318   5.245   4.566   1.598
 1440ZrO2    ZO 4319   5.139   4.424   1.760
 1440ZrO2    ZO 4320   5.173   4.679   1.933
 1441ZrO2    ZR 4321   3.974   5.089   1.858
 1441ZrO2    ZO 4322   4.046   5.202   1.673
 1441ZrO2    ZO 4323   4.080   4.948   1.500
 1442ZrO2    ZR 4324   4.191   5.089   1.598
 1442ZrO2    ZO 4325   4.086   4.948   1.760
 1442ZrO2    ZO 4326   4.120   5.202   1.933
 1443ZrO2    ZR 4327   4.238   4.855   1.900
 1443ZrO2    ZO 4328   4.309   4.742   1.565
 1443ZrO2    ZO 4329   4.343   4.997   1.738
 1444ZrO2    ZR 4330   4.455   4.855   1.640
 1444ZrO2    ZO 4331   4.349   4.997   1.997
 1444ZrO2    ZO 4332   4.383   4.742   1.824
 1445ZrO2    ZR 4333   4.501   5.089   1.858
 1445ZrO2    ZO 4334   4.573   5.202   1.673
 1445ZrO2    ZO 4335   4.607   4.948   1.500
 1446ZrO2    ZR 4336   4.718   5.089   1.598
 1446ZrO2    ZO 4337   4.613   4.948   1.760
 1446ZrO2    ZO 4338   4.646   5.202   1.933
 1447ZrO2    ZR 4339   4.765   4.855   1.900
 1447ZrO2    ZO 4340   4.836   4.742   1.565
 1447ZrO2    ZO 4341   4.870   4.997   1.738
 1448ZrO2    ZR 4342   4.981   4.855   1.640
 1448ZrO2    ZO 4343   4.876   4.997   1.997
 1448ZrO2    ZO 4344   4.910   4.742   1.824
 1449ZrO2    ZR 4345   5.028   5.089   1.858
 1449ZrO2    ZO 4346   5.100   5.202   1.673
 1449ZrO2    ZO 4347   5.133   4.948   1.500
 1450ZrO2    ZR 4348   5.245   5.089   1.598
 1450ZrO2    ZO 4349   5.139   4.948   1.760
 1450ZrO2    ZO 4350   5.173   5.202   1.933
 1451ZrO2    ZR 4351   3.974   2.996   2.378
 1451ZrO2    ZO 4352   4.046   3.109   2.193
 1451ZrO2    ZO 4353   4.080   2.854   2.020
 1452ZrO2    ZR 4354   4.191   2.996   2.118
 1452ZrO2    ZO 4355   4.086   2.854   2.280
 1452ZrO2    ZO 4356   4.120   3.109   2.453
 1453ZrO2    ZR 4357   4.238   2.761   2.419
 1453ZrO2    ZO 4358   4.309   2.649   2.084
 1453ZrO2    ZO 4359   4.343   2.903   2.257
 1454ZrO2    ZR 4360   4.455   2.761   2.159
 1454ZrO2    ZO 4361   4.349   2.903   2.517
 1454ZrO2    ZO 4362   4.383   2.649   2.344
 1455ZrO2    ZR 4363   4.501   2.996   2.378
 1455ZrO2    ZO 4364   4.573   3.109   2.193
 1455ZrO2    ZO 4365   4.607   2.854   2.020
 1456ZrO2    ZR 4366   4.718   2.996   2.118
 1456ZrO2    ZO 4367   4.613   2.854   2.280
 1456ZrO2    ZO 4368   4.646   3.109   2.453
 1457ZrO2    ZR 4369   4.765   2.761   2.419
 1457ZrO2    ZO 4370   4.836   2.649   2.084
 1457ZrO2    ZO 4371   4.870   2.903   2.257
 1458ZrO2    ZR 4372   4.981   2.761   2.159
 1458ZrO2    ZO 4373   4.876   2.903   2.517
 1458ZrO2    ZO 4374   4.910   2.649   2.344
 1459ZrO2    ZR 4375   5.028   2.996   2.378
 1459ZrO2    ZO 4376   5.100   3.109   2.193
 1459ZrO2    ZO 4377   5.133   2.854   2.020
 1460ZrO2    ZR 4378   5.245   2.996   2.118
 1460ZrO2    ZO 4379   5.139   2.854   2.280
 1460ZrO2    ZO 4380   5.173   3.109   2.453
 1461ZrO2    ZR 4381   3.974   3.519   2.378
 1461ZrO2    ZO 4382   4.046   3.632   2.193
 1461ZrO2    ZO 4383   4.080   3.378   2.020
 1462ZrO2    ZR 4384   4.191   3.519   2.118
 1462ZrO2    ZO 4385   4.086   3.378   2.280
 1462ZrO2    ZO 4386   4.120   3.632   2.453
 1463ZrO2    ZR 4387   4.238   3.285   2.419
 1463ZrO2    ZO 4388   4.309   3.172   2.084
 1463ZrO2    ZO 4389   4.343   3.427   2.257
 1464ZrO2    ZR 4390   4.455   3.285   2.159
 1464ZrO2    ZO 4391   4.349   3.427   2.517
 1464ZrO2    ZO 4392   4.383   3.172   2.344
 1465ZrO2    ZR 4393   4.501   3.519   2.378
 1465ZrO2    ZO 4394   4.573   3.632   2.193
 1465ZrO2    ZO 4395   4.607   3.378   2.020
 1466ZrO2    ZR 4396   4.718   3.519   2.118
 1466ZrO2    ZO 4397   4.613   3.378   2.280
 1466ZrO2    ZO 4398   4.646   3.632   2.453
 1467ZrO2    ZR 4399   4.765   3.285   2.419
 1467ZrO2    ZO 4400   4.836   3.172   2.084
 1467ZrO2    ZO 4401   4.870   3.427   2.257
 1468ZrO2    ZR 4402   4.981   3.285   2.159
 1468ZrO2    ZO 4403   4.876   3.427   2.517
 1468ZrO2    ZO 4404   4.910   3.172   2.344
 1469ZrO2    ZR 4405   5.028   3.519   2.378
 1469ZrO2    ZO 4406   5.100   3.632   2.193
 1469ZrO2    ZO 4407   5.133   3.378   2.020
 1470ZrO2    ZR 4408   5.245   3.519   2.118
 1470ZrO2    ZO 4409   5.139   3.378   2.280
 1470ZrO2    ZO 4410   5.173   3.632   2.453
 1471ZrO2    ZR 4411   3.974   4.043   2.378
 1471ZrO2    ZO 4412   4.046   4.155   2.193
 1471ZrO2    ZO 4413   4.080   3.901   2.020
 1472ZrO2    ZR 4414   4.191   4.043   2.118
 1472ZrO2    ZO 4415   4.086   3.901   2.280
 1472ZrO2    ZO 4416   4.120   4.155   2.453
 1473ZrO2    ZR 4417   4.238   3.808   2.419
 1473ZrO2    ZO 4418   4.309   3.696   2.084
 1473ZrO2    ZO 4419   4.343   3.950   2.257
 1474ZrO2    ZR 4420   4.455   3.808   2.159
 1474ZrO2    ZO 4421   4.349   3.950   2.517
 1474ZrO2    ZO 4422   4.383   3.696   2.344
 1475ZrO2    ZR 4423   4.501   4.043   2.378
 1475ZrO2    ZO 4424   4.573   4.155   2.193
 1475ZrO2    ZO 4425   4.607   3.901   2.020
 1476ZrO2    ZR 4426   4.718   4.043   2.118
 1476ZrO2    ZO 4427   4.613   3.901   2.280
 1476ZrO2    ZO 4428   4.646   4.155   2.453
 1477ZrO2    ZR 4429   4.765   3.808   2.419
 1477ZrO2    ZO 4430   4.836   3.696   2.084
 1477ZrO2    ZO 4431   4.870   3.950   2.257
 1478ZrO2    ZR 4432   4.981   3.808   2.159
 1478ZrO2    ZO 4433   4.876   3.950   2.517
 1478ZrO2    ZO 4434   4.910   3.696   2.344
 1479ZrO2    ZR 4435   5.028   4.043   2.378
 1479ZrO2    ZO 4436   5.100   4.155   2.193
 1479ZrO2    ZO 4437   5.133   3.901   2.020
 1480ZrO2    ZR 4438   5.245   4.043   2.118
 1480ZrO2    ZO 4439   5.139   3.901   2.280
 1480ZrO2    ZO 4440   5.173   4.155   2.453
 1481ZrO2    ZR 4441   3.974   4.566   2.378
 1481ZrO2    ZO 4442   4.046   4.679   2.193
 1481ZrO2    ZO 4443   4.080   4.424   2.020
 1482ZrO2    ZR 4444   4.191   4.566   2.118
 1482ZrO2    ZO 4445   4.086   4.424   2.280
 1482ZrO2    ZO 4446   4.120   4.679   2.453
 1483ZrO2    ZR 4447   4.238   4.332   2.419
 1483ZrO2    ZO 4448   4.309   4.219   2.084
 1483ZrO2    ZO 4449   4.343   4.473   2.257
 1484ZrO2    ZR 4450   4.455   4.332   2.159
 1484ZrO2    ZO 4451   4.349   4.473   2.517
 1484ZrO2    ZO 4452   4.383   4.219   2.344
 1485ZrO2    ZR 4453   4.501   4.566   2.378
 1485ZrO2    ZO 4454   4.573   4.679   2.193
 1485ZrO2    ZO 4455   4.607   4.424   2.020
 1486ZrO2    ZR 4456   4.718   4.566   2.118
 1486ZrO2    ZO 4457   4.613   4.424   2.280
 1486ZrO2    ZO 4458   4.646   4.679   2.453
 1487ZrO2    ZR 4459   4.765   4.332   2.419
 1487ZrO2    ZO 4460   4.836   4.219   2.084
 1487ZrO2    ZO 4461   4.870   4.473   2.257
 1488ZrO2    ZR 4462   4.981   4.332   2.159
 1488ZrO2    ZO 4463   4.876   4.473   2.517
 1488ZrO2    ZO 4464   4.910   4.219   2.344
 1489ZrO2    ZR 4465   5.028   4.566   2.378
 1489ZrO2    ZO 4466   5.100   4.679   2.193
 1489ZrO2    ZO 4467   5.133   4.424   2.020
 1490ZrO2    ZR 4468   5.245   4.566   2.118
 1490ZrO2    ZO 4469   5.139   4.424   2.280
 1490ZrO2    ZO 4470   5.173   4.679   2.453
 1491ZrO2    ZR 4471   3.974   5.089   2.378
 1491ZrO2    ZO 4472   4.046   5.202   2.193
 1491ZrO2    ZO 4473   4.080   4.948   2.020
 1492ZrO2    ZR 4474   4.191   5.089   2.118
 1492ZrO2    ZO 4475   4.086   4.948   2.280
 1492ZrO2    ZO 4476   4.120   5.202   2.453
 1493ZrO2    ZR 4477   4.238   4.855   2.419
 1493ZrO2    ZO 4478   4.309   4.742   2.084
 1493ZrO2    ZO 4479   4.343   4.997   2.257
 1494ZrO2    ZR 4480   4.455   4.855   2.159
 1494ZrO2    ZO 4481   4.349   4.997   2.517
 1494ZrO2    ZO 4482   4.383   4.742   2.344
 1495ZrO2    ZR 4483   4.501   5.089   2.378
 1495ZrO2    ZO 4484   4.573   5.202   2.193
 1495ZrO2    ZO 4485   4.607   4.948   2.020
 1496ZrO2    ZR 4486   4.718   5.089   2.118
 1496ZrO2    ZO 4487   4.613   4.948   2.280
 1496ZrO2    ZO 4488   4.646   5.202   2.453
 1497ZrO2    ZR 4489   4.765   4.855   2.419
 1497ZrO2    ZO 4490   4.836   4.742   2.084
 1497ZrO2    ZO 4491   4.870   4.997   2.257
 1498ZrO2    ZR 4492   4.981   4.855   2.159
 1498ZrO2    ZO 4493   4.876   4.997   2.517
 1498ZrO2    ZO 4494   4.910   4.742   2.344
 1499ZrO2    ZR 4495   5.028   5.089   2.378
 1499ZrO2    ZO 4496   5.100   5.202   2.193
 1499ZrO2    ZO 4497   5.133   4.948   2.020
 1500ZrO2    ZR 4498   5.245   5.089   2.118
 1500ZrO2    ZO 4499   5.139   4.948   2.280
 1500ZrO2    ZO 4500   5.173   5.202   2.453
 1501ZrO2    ZR 4501   3.974   2.996   2.898
 1501ZrO2    ZO 4502   4.046   3.109   2.713
 1501ZrO2    ZO 4503   4.080   2.854   2.540
 1502ZrO2    ZR 4504   4.191   2.996   2.638
 1502ZrO2    ZO 4505   4.086   2.854   2.800
 1502ZrO2    ZO 4506   4.120   3.109   2.973
 1503ZrO2    ZR 4507   4.238   2.761   2.939
 1503ZrO2    ZO 4508   4.309   2.649   2.604
 1503ZrO2    ZO 4509   4.343   2.903   2.777
 1504ZrO2    ZR 4510   4.455   2.761   2.679
 1504ZrO2    ZO 4511   4.349   2.903   3.037
 1504ZrO2    ZO 4512   4.383   2.649   2.864
 1505ZrO2    ZR 4513   4.501   2.996   2.898
 1505ZrO2    ZO 4514   4.573   3.109   2.713
 1505ZrO2    ZO 4515   4.607   2.854   2.540
 1506ZrO2    ZR 4516   4.718   2.996   2.638
 1506ZrO2    ZO 4517   4.613   2.854   2.800
 1506ZrO2    ZO 4518   4.646   3.109   2.973
 1507ZrO2    ZR 4519   4.765   2.761   2.939
 1507ZrO2    ZO 4520   4.836   2.649   2.604
 1507ZrO2    ZO 4521   4.870   2.903   2.777
 1508ZrO2    ZR 4522   4.981   2.761   2.679
 1508ZrO2    ZO 4523   4.876   2.903   3.037
 1508ZrO2    ZO 4524   4.910   2.649   2.864
 1509ZrO2    ZR 4525   5.028   2.996   2.898
 1509ZrO2    ZO 4526   5.100   3.109   2.713
 1509ZrO2    ZO 4527   5.133   2.854   2.540
 1510ZrO2    ZR 4528   5.245   2.996   2.638
 1510ZrO2    ZO 4529   5.139   2.854   2.800
 1510ZrO2    ZO 4530   5.173   3.109   2.973
 1511ZrO2    ZR 4531   3.974   3.519   2.898
 1511ZrO2    ZO 4532   4.046   3.632   2.713
 1511ZrO2    ZO 4533   4.080   3.378   2.540
 1512ZrO2    ZR 4534   4.191   3.519   2.638
 1512ZrO2    ZO 4535   4.086   3.378   2.800
 1512ZrO2    ZO 4536   4.120   3.632   2.973
 1513ZrO2    ZR 4537   4.238   3.285   2.939
 1513ZrO2    ZO 4538   4.309   3.172   2.604
 1513ZrO2    ZO 4539   4.343   3.427   2.777
 1514ZrO2    ZR 4540   4.455   3.285   2.679
 1514ZrO2    ZO 4541   4.349   3.427   3.037
 1514ZrO2    ZO 4542   4.383   3.172   2.864
 1515ZrO2    ZR 4543   4.501   3.519   2.898
 1515ZrO2    ZO 4544   4.573   3.632   2.713
 1515ZrO2    ZO 4545   4.607   3.378   2.540
 1516ZrO2    ZR 4546   4.718   3.519   2.638
 1516ZrO2    ZO 4547   4.613   3.378   2.800
 1516ZrO2    ZO 4548   4.646   3.632   2.973
 1517ZrO2    ZR 4549   4.765   3.285   2.939
 1517ZrO2    ZO 4550   4.836   3.172   2.604
 1517ZrO2    ZO 4551   4.870   3.427   2.777
 1518ZrO2    ZR 4552   4.981   3.285   2.679
 1518ZrO2    ZO 4553   4.876   3.427   3.037
 1518ZrO2    ZO 4554   4.910   3.172   2.864
 1519ZrO2    ZR 4555   5.028   3.519   2.898
 1519ZrO2    ZO 4556   5.100   3.632   2.713
 1519ZrO2    ZO 4557   5.133   3.378   2.540
 1520ZrO2    ZR 4558   5.245   3.519   2.638
 1520ZrO2    ZO 4559   5.139   3.378   2.800
 1520ZrO2    ZO 4560   5.173   3.632   2.973
 1521ZrO2    ZR 4561   3.974   4.043   2.898
 1521ZrO2    ZO 4562   4.046   4.155   2.713
 1521ZrO2    ZO 4563   4.080   3.901   2.540
 1522ZrO2    ZR 4564   4.191   4.043   2.638
 1522ZrO2    ZO 4565   4.086   3.901   2.800
 1522ZrO2    ZO 4566   4.120   4.155   2.973
 1523ZrO2    ZR 4567   4.238   3.808   2.939
 1523ZrO2    ZO 4568   4.309   3.696   2.604
 1523ZrO2    ZO 4569   4.343   3.950   2.777
 1524ZrO2    ZR 4570   4.455   3.808   2.679
 1524ZrO2    ZO 4571   4.349   3.950   3.037
 1524ZrO2    ZO 4572   4.383   3.696   2.864
 1525ZrO2    ZR 4573   4.501   4.043   2.898
 1525ZrO2    ZO 4574   4.573   4.155   2.713
 1525ZrO2    ZO 4575   4.607   3.901   2.540
 1526ZrO2    ZR 4576   4.718   4.043   2.638
 1526ZrO2    ZO 4577   4.613   3.901   2.800
 1526ZrO2    ZO 4578   4.646   4.155   2.973
 1527ZrO2    ZR 4579   4.765   3.808   2.939
 1527ZrO2    ZO 4580   4.836   3.696   2.604
 1527ZrO2    ZO 4581   4.870   3.950   2.777
 1528ZrO2    ZR 4582   4.981   3.808   2.679
 1528ZrO2    ZO 4583   4.876   3.950   3.037
 1528ZrO2    ZO 4584   4.910   3.696   2.864
 1529ZrO2    ZR 4585   5.028   4.043   2.898
 1529ZrO2    ZO 4586   5.100   4.155   2.713
 1529ZrO2    ZO 4587   5.133   3.901   2.540
 1530ZrO2    ZR 4588   5.245   4.043   2.638
 1530ZrO2    ZO 4589   5.139   3.901   2.800
 1530ZrO2    ZO 4590   5.173   4.155   2.973
 1531ZrO2    ZR 4591   3.974   4.566   2.898
 1531ZrO2    ZO 4592   4.046   4.679   2.713
 1531ZrO2    ZO 4593   4.080   4.424   2.540
 1532ZrO2    ZR 4594   4.191   4.566   2.638
 1532ZrO2    ZO 4595   4.086   4.424   2.800
 1532ZrO2    ZO 4596   4.120   4.679   2.973
 1533ZrO2    ZR 4597   4.238   4.332   2.939
 1533ZrO2    ZO 4598   4.309   4.219   2.604
 1533ZrO2    ZO 4599   4.343   4.473   2.777
 1534ZrO2    ZR 4600   4.455   4.332   2.679
 1534ZrO2    ZO 4601   4.349   4.473   3.037
 1534ZrO2    ZO 4602   4.383   4.219   2.864
 1535ZrO2    ZR 4603   4.501   4.566   2.898
 1535ZrO2    ZO 4604   4.573   4.679   2.713
 1535ZrO2    ZO 4605   4.607   4.424   2.540
 1536ZrO2    ZR 4606   4.718   4.566   2.638
 1536ZrO2    ZO 4607   4.613   4.424   2.800
 1536ZrO2    ZO 4608   4.646   4.679   2.973
 1537ZrO2    ZR 4609   4.765   4.332   2.939
 1537ZrO2    ZO 4610   4.836   4.219   2.604
 1537ZrO2    ZO 4611   4.870   4.473   2.777
 1538ZrO2    ZR 4612   4.981   4.332   2.679
 1538ZrO2    ZO 4613   4.876   4.473   3.037
 1538ZrO2    ZO 4614   4.910   4.219   2.864
 1539ZrO2    ZR 4615   5.028   4.566   2.898
 1539ZrO2    ZO 4616   5.100   4.679   2.713
 1539ZrO2    ZO 4617   5.133   4.424   2.540
 1540ZrO2    ZR 4618   5.245   4.566   2.638
 1540ZrO2    ZO 4619   5.139   4.424   2.800
 1540ZrO2    ZO 4620   5.173   4.679   2.973
 1541ZrO2    ZR 4621   3.974   5.089   2.898
 1541ZrO2    ZO 4622   4.046   5.202   2.713
 1541ZrO2    ZO 4623   4.080   4.948   2.540
 1542ZrO2    ZR 4624   4.191   5.089   2.638
 1542ZrO2    ZO 4625   4.086   4.948   2.800
 1542ZrO2    ZO 4626   4.120   5.202   2.973
 1543ZrO2    ZR 4627   4.238   4.855   2.939
 1543ZrO2    ZO 4628   4.309   4.742   2.604
 1543ZrO2    ZO 4629   4.343   4.997   2.777
 1544ZrO2    ZR 4630   4.455   4.855   2.679
 1544ZrO2    ZO 4631   4.349   4.997   3.037
 1544ZrO2    ZO 4632   4.383   4.742   2.864
 1545ZrO2    ZR 4633   4.501   5.089   2.898
 1545ZrO2    ZO 4634   4.573   5.202   2.713
 1545ZrO2    ZO 4635   4.607   4.948   2.540
 1546ZrO2    ZR 4636   4.718   5.089   2.638
 1546ZrO2    ZO 4637   4.613   4.948   2.800
 1546ZrO2    ZO 4638   4.646   5.202   2.973
 1547ZrO2    ZR 4639   4.765   4.855   2.939
 1547ZrO2    ZO 4640   4.836   4.742   2.604
 1547ZrO2    ZO 4641   4.870   4.997   2.777
 1548ZrO2    ZR 4642   4.981   4.855   2.679
 1548ZrO2    ZO 4643   4.876   4.997   3.037
 1548ZrO2    ZO 4644   4.910   4.742   2.864
 1549ZrO2    ZR 4645   5.028   5.089   2.898
 1549ZrO2    ZO 4646   5.100   5.202   2.713
 1549ZrO2    ZO 4647   5.133   4.948   2.540
 1550ZrO2    ZR 4648   5.245   5.089   2.638
 1550ZrO2    ZO 4649   5.139   4.948   2.800
 1550ZrO2    ZO 4650   5.173   5.202   2.973
 1551ZrO2    ZR 4651   3.974   2.996   3.417
 1551ZrO2    ZO 4652   4.046   3.109   3.232
 1551ZrO2    ZO 4653   4.080   2.854   3.059
 1552ZrO2    ZR 4654   4.191   2.996   3.158
 1552ZrO2    ZO 4655   4.086   2.854   3.319
 1552ZrO2    ZO 4656   4.120   3.109   3.492
 1553ZrO2    ZR 4657   4.238   2.761   3.459
 1553ZrO2    ZO 4658   4.309   2.649   3.124
 1553ZrO2    ZO 4659   4.343   2.903   3.297
 1554ZrO2    ZR 4660   4.455   2.761   3.199
 1554ZrO2    ZO 4661   4.349   2.903   3.557
 1554ZrO2    ZO 4662   4.383   2.649   3.384
 1555ZrO2    ZR 4663   4.501   2.996   3.417
 1555ZrO2    ZO 4664   4.573   3.109   3.232
 1555ZrO2    ZO 4665   4.607   2.854   3.059
 1556ZrO2    ZR 4666   4.718   2.996   3.158
 1556ZrO2    ZO 4667   4.613   2.854   3.319
 1556ZrO2    ZO 4668   4.646   3.109   3.492
 1557ZrO2    ZR 4669   4.765   2.761   3.459
 1557ZrO2    ZO 4670   4.836   2.649   3.124
 1557ZrO2    ZO 4671   4.870   2.903   3.297
 1558ZrO2    ZR 4672   4.981   2.761   3.199
 1558ZrO2    ZO 4673   4.876   2.903   3.557
 1558ZrO2    ZO 4674   4.910   2.649   3.384
 1559ZrO2    ZR 4675   5.028   2.996   3.417
 1559ZrO2    ZO 4676   5.100   3.109   3.232
 1559ZrO2    ZO 4677   5.133   2.854   3.059
 1560ZrO2    ZR 4678   5.245   2.996   3.158
 1560ZrO2    ZO 4679   5.139   2.854   3.319
 1560ZrO2    ZO 4680   5.173   3.109   3.492
 1561ZrO2    ZR 4681   3.974   3.519   3.417
 1561ZrO2    ZO 4682   4.046   3.632   3.232
 1561ZrO2    ZO 4683   4.080   3.378   3.059
 1562ZrO2    ZR 4684   4.191   3.519   3.158
 1562ZrO2    ZO 4685   4.086   3.378   3.319
 1562ZrO2    ZO 4686   4.120   3.632   3.492
 1563ZrO2    ZR 4687   4.238   3.285   3.459
 1563ZrO2    ZO 4688   4.309   3.172   3.124
 1563ZrO2    ZO 4689   4.343   3.427   3.297
 1564ZrO2    ZR 4690   4.455   3.285   3.199
 1564ZrO2    ZO 4691   4.349   3.427   3.557
 1564ZrO2    ZO 4692   4.383   3.172   3.384
 1565ZrO2    ZR 4693   4.501   3.519   3.417
 1565ZrO2    ZO 4694   4.573   3.632   3.232
 1565ZrO2    ZO 4695   4.607   3.378   3.059
 1566ZrO2    ZR 4696   4.718   3.519   3.158
 1566ZrO2    ZO 4697   4.613   3.378   3.319
 1566ZrO2    ZO 4698   4.646   3.632   3.492
 1567ZrO2    ZR 4699   4.765   3.285   3.459
 1567ZrO2    ZO 4700   4.836   3.172   3.124
 1567ZrO2    ZO 4701   4.870   3.427   3.297
 1568ZrO2    ZR 4702   4.981   3.285   3.199
 1568ZrO2    ZO 4703   4.876   3.427   3.557
 1568ZrO2    ZO 4704   4.910   3.172   3.384
 1569ZrO2    ZR 4705   5.028   3.519   3.417
 1569ZrO2    ZO 4706   5.100   3.632   3.232
 1569ZrO2    ZO 4707   5.133   3.378   3.059
 1570ZrO2    ZR 4708   5.245   3.519   3.158
 1570ZrO2    ZO 4709   5.139   3.378   3.319
 1570ZrO2    ZO 4710   5.173   3.632   3.492
 1571ZrO2    ZR 4711   3.974   4.043   3.417
 1571ZrO2    ZO 4712   4.046   4.155   3.232
 1571ZrO2    ZO 4713   4.080   3.901   3.059
 1572ZrO2    ZR 4714   4.191   4.043   3.158
 1572ZrO2    ZO 4715   4.086   3.901   3.319
 1572ZrO2    ZO 4716   4.120   4.155   3.492
 1573ZrO2    ZR 4717   4.238   3.808   3.459
 1573ZrO2    ZO 4718   4.309   3.696   3.124
 1573ZrO2    ZO 4719   4.343   3.950   3.297
 1574ZrO2    ZR 4720   4.455   3.808   3.199
 1574ZrO2    ZO 4721   4.349   3.950   3.557
 1574ZrO2    ZO 4722   4.383   3.696   3.384
 1575ZrO2    ZR 4723   4.501   4.043   3.417
 1575ZrO2    ZO 4724   4.573   4.155   3.232
 1575ZrO2    ZO 4725   4.607   3.901   3.059
 1576ZrO2    ZR 4726   4.718   4.043   3.158
 1576ZrO2    ZO 4727   4.613   3.901   3.319
 1576ZrO2    ZO 4728   4.646   4.155   3.492
 1577ZrO2    ZR 4729   4.765   3.808   3.459
 1577ZrO2    ZO 4730   4.836   3.696   3.124
 1577ZrO2    ZO 4731   4.870   3.950   3.297
 1578ZrO2    ZR 4732   4.981   3.808   3.199
 1578ZrO2    ZO 4733   4.876   3.950   3.557
 1578ZrO2    ZO 4734   4.910   3.696   3.384
 1579ZrO2    ZR 4735   5.028   4.043   3.417
 1579ZrO2    ZO 4736   5.100   4.155   3.232
 1579ZrO2    ZO 4737   5.133   3.901   3.059
 1580ZrO2    ZR 4738   5.245   4.043   3.158
 1580ZrO2    ZO 4739   5.139   3.901   3.319
 1580ZrO2    ZO 4740   5.173   4.155   3.492
 1581ZrO2    ZR 4741   3.974   4.566   3.417
 1581ZrO2    ZO 4742   4.046   4.679   3.232
 1581ZrO2    ZO 4743   4.080   4.424   3.059
 1582ZrO2    ZR 4744   4.191   4.566   3.158
 1582ZrO2    ZO 4745   4.086   4.424   3.319
 1582ZrO2    ZO 4746   4.120   4.679   3.492
 1583ZrO2    ZR 4747   4.238   4.332   3.459
 1583ZrO2    ZO 4748   4.309   4.219   3.124
 1583ZrO2    ZO 4749   4.343   4.473   3.297
 1584ZrO2    ZR 4750   4.455   4.332   3.199
 1584ZrO2    ZO 4751   4.349   4.473   3.557
 1584ZrO2    ZO 4752   4.383   4.219   3.384
 1585ZrO2    ZR 4753   4.501   4.566   3.417
 1585ZrO2    ZO 4754   4.573   4.679   3.232
 1585ZrO2    ZO 4755   4.607   4.424   3.059
 1586ZrO2    ZR 4756   4.718   4.566   3.158
 1586ZrO2    ZO 4757   4.613   4.424   3.319
 1586ZrO2    ZO 4758   4.646   4.679   3.492
 1587ZrO2    ZR 4759   4.765   4.332   3.459
 1587ZrO2    ZO 4760   4.836   4.219   3.124
 1587ZrO2    ZO 4761   4.870   4.473   3.297
 1588ZrO2    ZR 4762   4.981   4.332   3.199
 1588ZrO2    ZO 4763   4.876   4.473   3.557
 1588ZrO2    ZO 4764   4.910   4.219   3.384
 1589ZrO2    ZR 4765   5.028   4.566   3.417
 1589ZrO2    ZO 4766   5.100   4.679   3.232
 1589ZrO2    ZO 4767   5.133   4.424   3.059
 1590ZrO2    ZR 4768   5.245   4.566   3.158
 1590ZrO2    ZO 4769   5.139   4.424   3.319
 1590ZrO2    ZO 4770   5.173   4.679   3.492
 1591ZrO2    ZR 4771   3.974   5.089   3.417
 1591ZrO2    ZO 4772   4.046   5.202   3.232
 1591ZrO2    ZO 4773   4.080   4.948   3.059
 1592ZrO2    ZR 4774   4.191   5.089   3.158
 1592ZrO2    ZO 4775   4.086   4.948   3.319
 1592ZrO2    ZO 4776   4.120   5.202   3.492
 1593ZrO2    ZR 4777   4.238   4.855   3.459
 1593ZrO2    ZO 4778   4.309   4.742   3.124
 1593ZrO2    ZO 4779   4.343   4.997   3.297
 1594ZrO2    ZR 4780   4.455   4.855   3.199
 1594ZrO2    ZO 4781   4.349   4.997   3.557
 1594ZrO2    ZO 4782   4.383   4.742   3.384
 1595ZrO2    ZR 4783   4.501   5.089   3.417
 1595ZrO2    ZO 4784   4.573   5.202   3.232
 1595ZrO2    ZO 4785   4.607   4.948   3.059
 1596ZrO2    ZR 4786   4.718   5.089   3.158
 1596ZrO2    ZO 4787   4.613   4.948   3.319
 1596ZrO2    ZO 4788   4.646   5.202   3.492
 1597ZrO2    ZR 4789   4.765   4.855   3.459
 1597ZrO2    ZO 4790   4.836   4.742   3.124
 1597ZrO2    ZO 4791   4.870   4.997   3.297
 1598ZrO2    ZR 4792   4.981   4.855   3.199
 1598ZrO2    ZO 4793   4.876   4.997   3.557
 1598ZrO2    ZO 4794   4.910   4.742   3.384
 1599ZrO2    ZR 4795   5.028   5.089   3.417
 1599ZrO2    ZO 4796   5.100   5.202   3.232
 1599ZrO2    ZO 4797   5.133   4.948   3.059
 1600ZrO2    ZR 4798   5.245   5.089   3.158
 1600ZrO2    ZO 4799   5.139   4.948   3.319
 1600ZrO2    ZO 4800   5.173   5.202   3.492
   5.26800   5.23400  14.55090
