Droplet Evaporation
19890
    1UNK    F00    1  23.610   3.847   5.638  0.0651  0.9680  0.1337
    1UNK    C01    2  23.509   3.922   5.682  0.2725 -0.0544 -0.2731
    1UNK    H02    3  23.545   4.007   5.739  0.4974  0.1793 -0.7601
    1UNK    C03    4  23.383   3.897   5.650  0.0695 -0.0291  0.0879
    1UNK    C04    5  23.283   3.809   5.722 -0.1049 -0.1677 -0.1486
    1UNK    F05    6  23.232   3.883   5.822  0.2644 -0.0997  0.3250
    1UNK    F06    7  23.182   3.769   5.642 -0.2504 -0.0522  0.2310
    1UNK    F07    8  23.344   3.694   5.764 -0.0632 -0.0892 -0.3624
    1UNK    H08    9  23.359   3.916   5.546  0.3595 -0.9918 -0.1638
    2UNK    F00   10  23.527   0.828   5.722 -0.3483  0.0254  0.1001
    2UNK    C01   11  23.425   0.905   5.737  0.0685  0.3982 -0.2868
    2UNK    H02   12  23.458   0.988   5.801 -1.5936  0.7693  0.1290
    2UNK    C03   13  23.351   0.926   5.635 -0.5070  0.5417 -0.7194
    2UNK    C04   14  23.237   1.013   5.644 -0.6567  1.1897  0.1952
    2UNK    F05   15  23.255   1.139   5.596  0.5942  0.1561 -0.1468
    2UNK    F06   16  23.138   0.958   5.570 -0.1020  0.4443  0.2662
    2UNK    F07   17  23.210   1.029   5.777  0.2159  0.1112 -0.4254
    2UNK    H08   18  23.393   0.914   5.536  1.6012 -0.0368  0.2164
    3UNK    F00   19  23.302   2.031   7.788  0.1014 -0.3885  0.2483
    3UNK    C01   20  23.187   2.038   7.714  0.8772 -0.1243  0.3615
    3UNK    H02   21  23.196   2.107   7.630 -0.8882  1.4791  1.4736
    3UNK    C03   22  23.079   1.957   7.728 -0.4286 -0.4421 -0.2696
    3UNK    C04   23  22.967   2.004   7.808 -0.2319 -0.7817  0.7586
    3UNK    F05   24  22.899   2.102   7.738  0.1486  0.2753 -0.3915
    3UNK    F06   25  22.871   1.920   7.834  0.2036  0.3206  0.1734
    3UNK    F07   26  22.992   2.054   7.934 -0.1464  0.2705 -0.7136
    3UNK    H08   27  23.057   1.889   7.647  2.8997 -1.5594 -0.3163
    4UNK    F00   28  23.585   5.201   5.252 -0.1667 -0.2033  0.2406
    4UNK    C01   29  23.531   5.085   5.292  0.3532 -0.5886 -0.5560
    4UNK    H02   30  23.565   5.019   5.212 -1.6771 -1.1408 -0.9909
    4UNK    C03   31  23.417   5.066   5.360  0.1070 -0.0261  0.7803
    4UNK    C04   32  23.361   5.160   5.455  0.3152 -0.4761 -0.3639
    4UNK    F05   33  23.452   5.227   5.520  0.3916 -0.0903  0.0682
    4UNK    F06   34  23.286   5.250   5.391 -0.2046 -0.6467 -0.2941
    4UNK    F07   35  23.281   5.102   5.547 -0.1036 -0.6552 -0.2899
    4UNK    H08   36  23.340   4.998   5.324  1.8558 -1.1058 -1.0372
    5UNK    F00   37  24.604   3.230   3.054 -0.3809  0.1981  0.2181
    5UNK    C01   38  24.495   3.290   3.011  0.3988 -0.6053  0.2269
    5UNK    H02   39  24.435   3.233   2.939 -0.1405 -0.0150  0.2071
    5UNK    C03   40  24.453   3.412   3.054  0.0898  0.6164 -0.9979
    5UNK    C04   41  24.319   3.471   3.046  0.3672  0.5443 -0.2120
    5UNK    F05   42  24.237   3.408   3.135  0.3344  0.1262 -0.4670
    5UNK    F06   43  24.336   3.600   3.078 -0.0980 -0.4212 -0.2522
    5UNK    F07   44  24.258   3.455   2.927  0.7825  0.1314  0.3539
    5UNK    H08   45  24.517   3.470   3.119  1.0808 -0.5705 -0.9083
    6UNK    F00   46  23.642   4.546   5.443  0.3707 -0.0289  0.6343
    6UNK    C01   47  23.623   4.421   5.477  0.1347  0.4601 -0.2390
    6UNK    H02   48  23.701   4.380   5.542 -1.0954 -3.3565 -1.0464
    6UNK    C03   49  23.508   4.359   5.450  0.1581 -0.3398 -0.6557
    6UNK    C04   50  23.474   4.223   5.501  0.1125  0.0883  0.4469
    6UNK    F05   51  23.450   4.213   5.634  0.3358  0.0265  0.1450
    6UNK    F06   52  23.356   4.184   5.446 -0.4643 -0.1637  0.1677
    6UNK    F07   53  23.568   4.131   5.476 -0.1837  0.1758  0.3645
    6UNK    H08   54  23.443   4.393   5.371 -0.3771 -1.6726 -0.8013
    7UNK    F00   55  24.181   2.528   5.416  0.2278  0.3370  0.2557
    7UNK    C01   56  24.100   2.616   5.355  0.1376 -0.4553 -1.6541
    7UNK    H02   57  24.159   2.707   5.347  0.0466 -0.3576 -1.2514
    7UNK    C03   58  23.977   2.613   5.394  0.1010  1.4826 -0.1708
    7UNK    C04   59  23.892   2.493   5.420  0.6890  0.2325  0.4211
    7UNK    F05   60  23.946   2.395   5.343  0.0907 -0.0488  0.2824
    7UNK    F06   61  23.904   2.457   5.547 -0.3292  0.0279 -0.4860
    7UNK    F07   62  23.762   2.507   5.385 -0.4001  0.1237  0.1994
    7UNK    H08   63  23.917   2.702   5.382  0.7481  1.8860 -0.4641
    8UNK    F00   64  24.978   0.716   4.266 -0.4821 -0.6528 -0.0777
    8UNK    C01   65  24.882   0.785   4.330  0.0420  0.0386  0.4881
    8UNK    H02   66  24.788   0.730   4.329  0.9749 -1.5913 -0.1724
    8UNK    C03   67  24.919   0.892   4.400 -0.3257  0.1809  0.7705
    8UNK    C04   68  24.845   0.941   4.517 -0.3466  0.1910 -0.4709
    8UNK    F05   69  24.875   0.860   4.621 -0.0514 -0.1371 -0.0101
    8UNK    F06   70  24.886   1.066   4.555 -0.1677 -0.0219  0.1394
    8UNK    F07   71  24.707   0.958   4.504 -0.5465  0.1674  0.2131
    8UNK    H08   72  24.958   0.979   4.348  0.8629 -0.1311  1.1334
    9UNK    F00   73  23.360   2.749   6.716 -0.6290  0.3497 -0.2349
    9UNK    C01   74  23.265   2.648   6.719  0.1851 -0.5035 -1.2376
    9UNK    H02   75  23.176   2.681   6.774  2.3844  0.3856  1.9073
    9UNK    C03   76  23.308   2.530   6.679 -0.2229  0.0275 -1.2481
    9UNK    C04   77  23.386   2.443   6.767  0.3366  0.1335 -0.6852
    9UNK    F05   78  23.308   2.376   6.848  0.3522 -0.2861 -0.3922
    9UNK    F06   79  23.447   2.341   6.702  0.0612  0.3686  0.4386
    9UNK    F07   80  23.482   2.498   6.850  0.7175  0.2608 -0.1397
    9UNK    H08   81  23.254   2.463   6.615 -0.7191 -2.6391  1.7945
   10UNK    F00   82  25.023   0.562   3.832 -0.4380  0.1170 -0.0086
   10UNK    C01   83  24.970   0.449   3.881  0.4962  0.1600  0.3471
   10UNK    H02   84  24.905   0.478   3.963  0.9019 -2.6968  1.7473
   10UNK    C03   85  25.016   0.330   3.849  0.4488  0.2439  0.5150
   10UNK    C04   86  24.961   0.213   3.919  0.3893  0.0554 -0.4081
   10UNK    F05   87  24.991   0.204   4.052  0.1892 -0.0666  0.4366
   10UNK    F06   88  24.828   0.208   3.899 -0.3674 -0.1589  0.4847
   10UNK    F07   89  25.016   0.104   3.858  0.0288  0.4123  0.4565
   10UNK    H08   90  25.107   0.316   3.791 -1.0533 -0.1339 -1.8257
   11UNK    F00   91  23.730   1.381   5.842  0.2734 -0.2319  0.0972
   11UNK    C01   92  23.628   1.467   5.864 -0.2446  0.2779  0.4892
   11UNK    H02   93  23.641   1.528   5.953  0.8756 -0.9803  1.1965
   11UNK    C03   94  23.527   1.475   5.783  0.2540  0.3898  0.0669
   11UNK    C04   95  23.429   1.375   5.756 -0.7760  0.2278  0.0725
   11UNK    F05   96  23.333   1.365   5.852 -0.2591 -0.3032 -0.3376
   11UNK    F06   97  23.362   1.409   5.643 -0.4418 -0.1684  0.1452
   11UNK    F07   98  23.483   1.251   5.730 -0.1237  0.1807  0.1079
   11UNK    H08   99  23.543   1.518   5.686  2.4018  1.9336  1.0440
   12UNK    F00  100  24.564   0.569   4.577 -0.5850  0.1659 -0.1210
   12UNK    C01  101  24.629   0.617   4.692  0.4132 -0.7414  0.0292
   12UNK    H02  102  24.700   0.545   4.733  2.3517  1.9424  1.5360
   12UNK    C03  103  24.578   0.726   4.751 -1.0602  0.1296  0.3189
   12UNK    C04  104  24.457   0.729   4.831 -0.3079  0.1904  0.0419
   12UNK    F05  105  24.490   0.665   4.943  0.0998  0.1463  0.4082
   12UNK    F06  106  24.417   0.857   4.851  0.2253 -0.0758  0.0961
   12UNK    F07  107  24.351   0.670   4.776  0.2845  0.0880 -0.1229
   12UNK    H08  108  24.600   0.827   4.721 -1.6457  0.5400  1.2265
   13UNK    F00  109  26.522   2.795   3.501 -0.0571 -0.1312 -0.0104
   13UNK    C01  110  26.529   2.759   3.370 -0.4567 -0.1301 -0.5347
   13UNK    H02  111  26.601   2.677   3.371 -0.4025 -0.0677  1.3612
   13UNK    C03  112  26.510   2.838   3.268  0.2760  0.2390 -0.6284
   13UNK    C04  113  26.617   2.915   3.202 -0.0501 -0.1675 -0.2483
   13UNK    F05  114  26.665   2.865   3.083  0.2900  0.0406 -0.0477
   13UNK    F06  115  26.567   3.034   3.159 -0.1602 -0.2685 -0.3782
   13UNK    F07  116  26.715   2.944   3.289 -0.5441 -0.1083 -0.2642
   13UNK    H08  117  26.413   2.880   3.247  1.1831  1.5669 -2.2642
   14UNK    F00  118  25.416   0.840   7.207 -0.1824 -0.0887  0.1347
   14UNK    C01  119  25.385   0.947   7.279  0.5246  0.8124  0.1292
   14UNK    H02  120  25.302   0.934   7.349 -0.1546  2.2926 -0.3729
   14UNK    C03  121  25.461   1.057   7.266 -0.3258 -0.2386 -0.4824
   14UNK    C04  122  25.612   1.062   7.274 -0.2133  0.5956 -0.3325
   14UNK    F05  123  25.682   1.068   7.158  0.2081  0.9397 -0.3319
   14UNK    F06  124  25.641   1.184   7.338  0.1181 -0.4284  0.3446
   14UNK    F07  125  25.656   0.954   7.344 -0.2402  0.0981 -0.0467
   14UNK    H08  126  25.420   1.157   7.274 -1.5937 -0.8734  0.9904
   15UNK    F00  127  25.131   1.979   7.381 -0.2836  0.1280 -0.2923
   15UNK    C01  128  25.031   1.992   7.470  0.3128  0.1485 -0.1318
   15UNK    H02  129  24.943   1.935   7.439  0.7724 -3.3513  4.5321
   15UNK    C03  130  25.043   2.064   7.576 -0.0564 -0.0657 -0.2280
   15UNK    C04  131  25.042   2.208   7.593  0.0460  0.1757 -0.4182
   15UNK    F05  132  25.127   2.217   7.700 -0.3434  0.2326 -0.0084
   15UNK    F06  133  25.085   2.294   7.495 -0.0424  1.0536 -0.3220
   15UNK    F07  134  24.924   2.246   7.640 -0.0326 -0.0647 -0.2048
   15UNK    H08  135  25.067   2.021   7.672 -1.1399  2.0789  1.0388
   16UNK    F00  136  23.949   0.710   7.291 -0.0477  0.0677 -0.0658
   16UNK    C01  137  23.937   0.641   7.177  0.1582  0.3845 -0.6441
   16UNK    H02  138  24.021   0.642   7.108 -0.1623 -1.9346 -1.1111
   16UNK    C03  139  23.819   0.594   7.146  0.2274 -0.0209  1.1545
   16UNK    C04  140  23.799   0.484   7.048 -0.1439  0.1462  0.0058
   16UNK    F05  141  23.675   0.474   7.000 -0.0554  0.1858  0.0168
   16UNK    F06  142  23.890   0.497   6.943  0.1300 -0.0987 -0.1486
   16UNK    F07  143  23.838   0.379   7.118  0.0032  0.0497 -0.5080
   16UNK    H08  144  23.727   0.647   7.163 -0.2417 -0.7740  0.9911
   17UNK    F00  145  23.956   2.177   9.736 -0.9238  0.4861 -0.2633
   17UNK    C01  146  23.891   2.187   9.614 -0.0798 -0.3602 -0.6020
   17UNK    H02  147  23.959   2.178   9.529 -1.0867  1.9950 -1.7004
   17UNK    C03  148  23.760   2.212   9.607 -0.7375  0.0463  0.1448
   17UNK    C04  149  23.680   2.233   9.483  0.1671  0.0425 -0.2160
   17UNK    F05  150  23.577   2.315   9.509  0.3332 -0.2036  0.5074
   17UNK    F06  151  23.757   2.278   9.377 -0.2236 -0.3234 -0.8544
   17UNK    F07  152  23.632   2.108   9.455 -0.3787  0.3895  0.2365
   17UNK    H08  153  23.706   2.229   9.698 -0.6856 -0.3025  0.2421
   18UNK    F00  154  23.893   0.536   5.168 -0.2639  0.1544  0.1234
   18UNK    C01  155  24.016   0.577   5.143  0.0801 -0.3161  0.2607
   18UNK    H02  156  24.083   0.531   5.215  0.2353 -0.5825 -0.0540
   18UNK    C03  157  24.047   0.619   5.021 -0.1208 -0.0403 -0.0591
   18UNK    C04  158  23.998   0.553   4.901 -0.4134  0.0886 -0.2447
   18UNK    F05  159  24.007   0.420   4.930  0.5369 -0.3149  0.0898
   18UNK    F06  160  23.869   0.588   4.876  0.0554  0.4183 -0.0143
   18UNK    F07  161  24.074   0.587   4.794  0.0827 -0.4861  0.3492
   18UNK    H08  162  24.148   0.655   5.005 -1.1846  1.6438 -3.4533
   19UNK    F00  163  19.381   0.893   9.833  0.1364 -0.3199 -0.0304
   19UNK    C01  164  19.257   0.932   9.804 -0.7965  0.0810  0.1610
   19UNK    H02  165  19.181   0.871   9.853  0.1027  1.2545  3.1539
   19UNK    C03  166  19.223   1.035   9.724 -0.7551 -0.0523 -0.1939
   19UNK    C04  167  19.106   1.123   9.744 -0.1925  0.0138 -1.1990
   19UNK    F05  168  19.011   1.051   9.807  0.0719 -0.2427 -0.5266
   19UNK    F06  169  19.129   1.236   9.814 -0.3711 -0.0789 -0.0337
   19UNK    F07  170  19.055   1.155   9.622 -0.3764 -0.1254 -0.2389
   19UNK    H08  171  19.304   1.089   9.676  0.3323 -1.3974  0.0892
   20UNK    F00  172  24.408   0.063   6.871 -0.2667  0.1057  0.3101
   20UNK    C01  173  24.374   0.189   6.905 -0.5602  0.6475 -0.1157
   20UNK    H02  174  24.439   0.217   6.988  0.9083 -1.0612 -0.6543
   20UNK    C03  175  24.298   0.269   6.836  0.2723 -0.0454 -0.0274
   20UNK    C04  176  24.292   0.412   6.866  0.1073 -0.5372  0.0602
   20UNK    F05  177  24.373   0.483   6.787 -0.4235 -0.2802 -0.4043
   20UNK    F06  178  24.168   0.461   6.849 -0.4319 -0.6925  0.3151
   20UNK    F07  179  24.332   0.448   6.995  0.4271 -0.4541  0.0965
   20UNK    H08  180  24.215   0.234   6.778  1.9080 -1.6398 -1.4627
   21UNK    F00  181  22.558   0.719   7.881  0.3068  0.0966  0.4117
   21UNK    C01  182  22.572   0.774   7.760 -0.5321  0.2035  0.5705
   21UNK    H02  183  22.537   0.705   7.684 -0.2544 -1.2756  1.7649
   21UNK    C03  184  22.648   0.885   7.756 -0.0648 -0.2675 -0.3534
   21UNK    C04  185  22.627   0.970   7.634 -0.1199  0.5223  0.3551
   21UNK    F05  186  22.603   0.906   7.516  0.0709  0.4142  0.0285
   21UNK    F06  187  22.523   1.052   7.670 -0.0004 -0.6743 -0.0638
   21UNK    F07  188  22.732   1.056   7.611  0.3233 -0.7157  0.2378
   21UNK    H08  189  22.663   0.937   7.849 -1.6629 -1.6125  0.6906
   22UNK    F00  190  22.891   3.132   9.098 -0.0046  0.2548  0.2837
   22UNK    C01  191  22.852   3.081   8.980  0.5653  0.4808  0.7025
   22UNK    H02  192  22.883   3.138   8.892 -0.0565 -1.2665 -0.6755
   22UNK    C03  193  22.819   2.951   8.989  0.4411  0.4379 -0.4661
   22UNK    C04  194  22.673   2.913   8.995 -0.4549 -0.2676 -0.2602
   22UNK    F05  195  22.600   3.015   9.047 -0.3211 -0.2327  0.3750
   22UNK    F06  196  22.630   2.894   8.874  0.3049 -0.1344  0.3565
   22UNK    F07  197  22.641   2.800   9.068 -0.4290  0.0247 -0.1132
   22UNK    H08  198  22.884   2.865   8.993  0.9133  0.7164 -2.1308
   23UNK    F00  199  17.606   1.308  13.703 -0.1659 -0.3770  0.1822
   23UNK    C01  200  17.525   1.369  13.787 -0.8025 -0.0463  0.0309
   23UNK    H02  201  17.534   1.478  13.786 -0.6070 -0.0568 -2.0921
   23UNK    C03  202  17.412   1.305  13.814  0.3706 -0.1150  0.6658
   23UNK    C04  203  17.301   1.355  13.899 -0.3712 -0.1834  0.5161
   23UNK    F05  204  17.203   1.259  13.889  0.4599 -0.4722 -0.0321
   23UNK    F06  205  17.355   1.352  14.023  0.7226 -0.4758 -1.1203
   23UNK    F07  206  17.264   1.481  13.866 -0.0916 -0.4013  0.0317
   23UNK    H08  207  17.399   1.203  13.782 -1.0887  0.8381 -2.0225
   24UNK    F00  208  23.064   2.556   7.350 -0.3444 -0.2359  0.6602
   24UNK    C01  209  23.092   2.587   7.225  0.2210 -0.5620 -0.6254
   24UNK    H02  210  23.047   2.519   7.152 -1.2469 -0.8450  0.5133
   24UNK    C03  211  23.111   2.715   7.189 -0.4095 -0.2410 -0.0877
   24UNK    C04  212  23.148   2.760   7.055 -0.0053 -0.0950  0.2915
   24UNK    F05  213  23.036   2.762   6.972 -0.0970  0.6556 -0.1448
   24UNK    F06  214  23.163   2.898   7.057 -0.4977  0.3654 -0.6058
   24UNK    F07  215  23.250   2.694   6.997  0.4999  0.1943  0.1423
   24UNK    H08  216  23.083   2.794   7.258 -1.7162 -1.9980  1.4580
   25UNK    F00  217  22.784   3.903   8.489 -0.1115  0.2097  0.2176
   25UNK    C01  218  22.760   3.942   8.364 -0.0869 -0.1845 -0.0226
   25UNK    H02  219  22.746   4.049   8.352 -0.7938 -0.1471  1.0849
   25UNK    C03  220  22.807   3.855   8.278  0.2527  0.4757  0.1206
   25UNK    C04  221  22.951   3.840   8.261 -0.3616  0.5397 -0.7103
   25UNK    F05  222  23.009   3.754   8.347  0.5329 -0.0018 -0.3512
   25UNK    F06  223  22.979   3.789   8.136 -0.7787  0.5227  0.2036
   25UNK    F07  224  23.012   3.960   8.269  0.2276 -0.1587 -0.1800
   25UNK    H08  225  22.750   3.765   8.259  0.7998  0.2306 -0.3850
   26UNK    F00  226  24.740   1.170   8.866 -0.0894  0.4557 -0.1976
   26UNK    C01  227  24.719   1.118   8.743  0.5385  0.1318 -0.3563
   26UNK    H02  228  24.773   1.025   8.730 -0.5001 -0.3984 -0.9676
   26UNK    C03  229  24.614   1.160   8.669 -0.0951  0.1750 -0.5434
   26UNK    C04  230  24.590   1.102   8.536 -0.7092  0.0072 -0.1315
   26UNK    F05  231  24.584   1.187   8.428  0.2019  0.1923 -0.1681
   26UNK    F06  232  24.686   1.011   8.492  0.3625  0.0123  0.0045
   26UNK    F07  233  24.474   1.035   8.534  0.0061 -0.4377 -0.0933
   26UNK    H08  234  24.519   1.180   8.716  0.1308 -0.5340  0.2247
   27UNK    F00  235  25.145   2.367   6.167  0.0828 -0.1278  0.6183
   27UNK    C01  236  25.146   2.488   6.230 -0.8574  0.2534  0.3508
   27UNK    H02  237  25.046   2.515   6.264 -2.3598 -2.5647 -1.6208
   27UNK    C03  238  25.248   2.568   6.214  0.1539 -0.6508  0.3609
   27UNK    C04  239  25.266   2.654   6.101  0.0040 -0.1559 -0.0773
   27UNK    F05  240  25.379   2.723   6.116 -0.5372 -0.0870 -0.1781
   27UNK    F06  241  25.285   2.590   5.985 -0.0133  0.2312 -0.6033
   27UNK    F07  242  25.160   2.732   6.091 -0.0651  0.2102  0.5946
   27UNK    H08  243  25.307   2.603   6.298 -0.1605 -0.6683  0.5890
   28UNK    F00  244  22.988   1.881   8.378 -0.3127 -0.1860 -0.5641
   28UNK    C01  245  23.034   2.007   8.367  0.7096  0.1226 -0.2984
   28UNK    H02  246  23.100   2.041   8.447 -0.7554  0.0892  0.9538
   28UNK    C03  247  22.989   2.079   8.260  0.1424  0.2824  0.2148
   28UNK    C04  248  23.056   2.205   8.230  0.5367 -0.0320 -0.4643
   28UNK    F05  249  22.979   2.274   8.143 -0.2779 -0.3112  0.3328
   28UNK    F06  250  23.087   2.271   8.343  0.0727  0.2075  0.0641
   28UNK    F07  251  23.171   2.180   8.163 -0.2190  0.5558  0.0951
   28UNK    H08  252  22.940   2.026   8.180 -1.7053  1.8004  0.3067
   29UNK    F00  253  24.520   3.216   9.296 -0.7094  0.1599  0.0379
   29UNK    C01  254  24.502   3.246   9.168 -0.0293 -0.4521  0.1154
   29UNK    H02  255  24.597   3.233   9.117  1.8812  0.9679  3.1440
   29UNK    C03  256  24.381   3.226   9.116 -0.4016 -0.4861  0.2026
   29UNK    C04  257  24.353   3.225   8.973 -0.6252 -0.0814  0.1593
   29UNK    F05  258  24.393   3.336   8.907 -0.2031  0.6320 -0.2847
   29UNK    F06  259  24.420   3.119   8.917  0.1209  0.3134 -0.6256
   29UNK    F07  260  24.225   3.208   8.942  0.1574 -0.0225 -0.3660
   29UNK    H08  261  24.332   3.139   9.157  1.0038 -1.4704 -0.1687
   30UNK    F00  262  23.398   2.427   5.791  0.1339  0.7408  0.3746
   30UNK    C01  263  23.472   2.353   5.877  0.3635 -0.3893 -0.0276
   30UNK    H02  264  23.451   2.248   5.862 -0.9069 -0.1897  0.2901
   30UNK    C03  265  23.534   2.407   5.983  0.4322  0.0984  0.0170
   30UNK    C04  266  23.605   2.335   6.086 -0.9193  0.3775  0.5428
   30UNK    F05  267  23.566   2.217   6.132  0.3829 -0.2871  0.2549
   30UNK    F06  268  23.733   2.327   6.040  0.2554 -0.5932 -0.1084
   30UNK    F07  269  23.608   2.416   6.193 -0.0988 -0.3064  0.1327
   30UNK    H08  270  23.600   2.488   5.955 -0.6058 -0.0185 -2.9505
   31UNK    F00  271  23.996   1.911   7.459 -0.8937 -0.2082 -0.3020
   31UNK    C01  272  24.119   1.895   7.406  0.0065 -0.1170 -0.3079
   31UNK    H02  273  24.106   1.866   7.302  0.7970 -0.5879 -0.2831
   31UNK    C03  274  24.219   1.972   7.454  0.3385  0.0204  0.3263
   31UNK    C04  275  24.334   2.013   7.378  0.2487 -0.5047 -0.1526
   31UNK    F05  276  24.435   2.035   7.457  0.0171  0.3346  0.0282
   31UNK    F06  277  24.379   1.919   7.292  0.2982  0.5910  0.3935
   31UNK    F07  278  24.306   2.125   7.304 -0.6456 -0.0881 -0.1483
   31UNK    H08  279  24.209   2.021   7.550  3.1047 -0.5130  0.9334
   32UNK    F00  280  25.679   1.901   8.383 -0.1282  0.3288  0.0109
   32UNK    C01  281  25.759   1.810   8.432 -0.4408  0.7052 -0.0593
   32UNK    H02  282  25.845   1.797   8.366 -0.5058  2.4924 -0.5180
   32UNK    C03  283  25.729   1.747   8.541  0.0706  0.0667 -0.2846
   32UNK    C04  284  25.664   1.618   8.534  0.7104 -0.0539 -0.5464
   32UNK    F05  285  25.578   1.583   8.626  0.1350  0.1033 -0.2784
   32UNK    F06  286  25.594   1.617   8.415 -0.4098 -0.0083  0.3603
   32UNK    F07  287  25.767   1.532   8.512 -0.1835 -0.0843 -0.0670
   32UNK    H08  288  25.796   1.767   8.624 -0.5963 -1.4645  0.6281
   33UNK    F00  289  23.366   1.754   8.203  0.1719  0.0477  0.2897
   33UNK    C01  290  23.256   1.685   8.175  0.5106 -0.8732 -0.0913
   33UNK    H02  291  23.167   1.748   8.169  1.4635  0.6775  1.6776
   33UNK    C03  292  23.236   1.567   8.230 -0.4319  0.6778 -0.6053
   33UNK    C04  293  23.149   1.462   8.173  0.0245 -0.0883 -0.3093
   33UNK    F05  294  23.105   1.385   8.279 -0.1794  0.4054 -0.7104
   33UNK    F06  295  23.043   1.518   8.119 -0.7079 -0.0697  0.0481
   33UNK    F07  296  23.201   1.375   8.084 -0.3341 -0.5213 -0.3928
   33UNK    H08  297  23.298   1.538   8.313 -0.9448  0.3257 -0.3512
   34UNK    F00  298  22.837   5.082   8.050 -0.3126  0.7150  0.2356
   34UNK    C01  299  22.719   5.111   8.112  0.1735  1.0184  0.1611
   34UNK    H02  300  22.733   5.197   8.177 -0.2780  1.1281  0.1088
   34UNK    C03  301  22.612   5.033   8.097  0.3065  0.4966 -0.2371
   34UNK    C04  302  22.479   5.071   8.162 -0.2157  0.2272  0.0493
   34UNK    F05  303  22.409   4.962   8.185 -0.0105  0.0430 -0.0559
   34UNK    F06  304  22.495   5.130   8.286 -0.0525  0.1441  0.0087
   34UNK    F07  305  22.413   5.153   8.074  0.0451 -0.0185  0.2454
   34UNK    H08  306  22.628   4.927   8.097 -2.8972 -0.0350  1.0870
   35UNK    F00  307  25.800   2.766   9.885 -0.0355  0.0717  0.6164
   35UNK    C01  308  25.690   2.717   9.939  0.1073  0.1244  0.0497
   35UNK    H02  309  25.641   2.795   9.997  0.5427  0.9878 -0.7281
   35UNK    C03  310  25.660   2.585   9.932  0.6560  0.6443  0.2178
   35UNK    C04  311  25.532   2.529   9.972 -0.3067  0.2811 -1.7166
   35UNK    F05  312  25.484   2.593  10.083 -0.3543  0.3890 -0.0075
   35UNK    F06  313  25.446   2.549   9.869 -0.0332  0.0980  0.2111
   35UNK    F07  314  25.550   2.394   9.999 -0.5720 -0.2413  0.2845
   35UNK    H08  315  25.705   2.520   9.859  0.0723  1.2320 -0.6758
   36UNK    F00  316  24.413   1.729   6.276  0.1898  0.0741 -0.0471
   36UNK    C01  317  24.406   1.650   6.171 -0.1622 -0.4688 -0.4513
   36UNK    H02  318  24.459   1.690   6.084 -1.9961 -1.0478 -1.8641
   36UNK    C03  319  24.382   1.519   6.179  0.0053  0.0186 -0.8629
   36UNK    C04  320  24.415   1.424   6.069 -0.2518 -0.5384 -0.3655
   36UNK    F05  321  24.540   1.380   6.095 -0.4227 -0.2408 -0.0595
   36UNK    F06  322  24.319   1.326   6.072 -0.6920 -0.1655  0.0475
   36UNK    F07  323  24.405   1.476   5.944 -0.3740 -0.7894 -0.5821
   36UNK    H08  324  24.335   1.475   6.266 -0.0950  1.1403 -0.3379
   37UNK    F00  325  22.239   1.554   6.792 -0.7124  0.4283  0.2291
   37UNK    C01  326  22.249   1.594   6.667  0.6758 -0.2586 -0.6424
   37UNK    H02  327  22.261   1.701   6.651  0.0070  0.2178  1.8090
   37UNK    C03  328  22.237   1.501   6.571 -0.3285 -0.6560 -0.3506
   37UNK    C04  329  22.271   1.520   6.428  0.2055  0.1379  0.1462
   37UNK    F05  330  22.186   1.453   6.341  0.2228  0.5498 -0.2866
   37UNK    F06  331  22.237   1.651   6.395  0.2433 -0.2562 -0.5440
   37UNK    F07  332  22.404   1.500   6.412 -0.8271 -0.0793  0.0690
   37UNK    H08  333  22.238   1.397   6.599 -2.6215 -0.3081  1.1204
   38UNK    F00  334  24.440   3.324   6.106  0.0383  0.0413 -0.0102
   38UNK    C01  335  24.575   3.330   6.137  0.4507  0.2583 -0.1389
   38UNK    H02  336  24.630   3.289   6.052  2.3136  3.0051 -0.3069
   38UNK    C03  337  24.628   3.361   6.255 -0.9157  0.0016  0.5829
   38UNK    C04  338  24.667   3.261   6.357 -0.3615  0.4257 -0.2466
   38UNK    F05  339  24.787   3.201   6.325  0.0343 -0.3825 -0.6211
   38UNK    F06  340  24.690   3.331   6.470  0.4738  0.2236  0.1587
   38UNK    F07  341  24.573   3.170   6.382 -0.0884  0.2415  0.1883
   38UNK    H08  342  24.687   3.451   6.259 -0.1986 -0.4729  0.7841
   39UNK    F00  343  24.926   2.385  10.216  0.1321 -0.1289 -0.1137
   39UNK    C01  344  24.831   2.357  10.302  0.1993  0.3343  0.7823
   39UNK    H02  345  24.865   2.288  10.380 -0.1016  0.6730  1.2156
   39UNK    C03  346  24.708   2.385  10.270  0.0629 -0.1601  0.3522
   39UNK    C04  347  24.618   2.459  10.361 -0.9990  0.5199 -0.3677
   39UNK    F05  348  24.490   2.424  10.332 -0.3910  0.0192 -0.0536
   39UNK    F06  349  24.622   2.419  10.487  0.0560  0.4091 -0.3378
   39UNK    F07  350  24.624   2.590  10.357 -0.3402 -0.4057  0.1064
   39UNK    H08  351  24.648   2.315  10.213  1.4426 -0.6997 -0.4520
   40UNK    F00  352  24.775   0.617   5.762 -0.4571  0.2578  0.3335
   40UNK    C01  353  24.719   0.498   5.777  0.7993 -0.2155  0.2211
   40UNK    H02  354  24.692   0.491   5.883  0.1734  1.4436  0.1786
   40UNK    C03  355  24.703   0.421   5.673 -0.0501  0.1999  0.3927
   40UNK    C04  356  24.621   0.299   5.689 -0.0710 -0.3274 -0.4969
   40UNK    F05  357  24.647   0.214   5.591  0.1720  0.4965  0.2320
   40UNK    F06  358  24.648   0.247   5.813  0.3438  0.3351  0.2501
   40UNK    F07  359  24.485   0.328   5.685  0.4084  0.4387 -0.2256
   40UNK    H08  360  24.773   0.419   5.590  0.4856 -0.1455  0.8494
   41UNK    F00  361  23.758   1.332   8.870 -0.1603  0.2678  0.3380
   41UNK    C01  362  23.630   1.368   8.880  0.9336 -0.2895  0.2825
   41UNK    H02  363  23.586   1.326   8.971 -0.3189  2.9238  1.2281
   41UNK    C03  364  23.575   1.465   8.808  0.2906 -0.3605 -0.1792
   41UNK    C04  365  23.528   1.452   8.676  0.6195  0.2011 -0.0830
   41UNK    F05  366  23.555   1.567   8.607  0.2466  0.0946 -0.6746
   41UNK    F06  367  23.591   1.352   8.604 -0.0491  0.1775 -0.1563
   41UNK    F07  368  23.394   1.437   8.669  0.0967 -0.1298 -0.0985
   41UNK    H08  369  23.582   1.567   8.844 -0.1484  0.5403 -2.5859
   42UNK    F00  370  23.599   4.960   8.292  0.3940 -0.3179 -0.3106
   42UNK    C01  371  23.687   5.056   8.272  0.4319  0.4581  0.3181
   42UNK    H02  372  23.777   5.039   8.331  0.6165  1.0294  0.2048
   42UNK    C03  373  23.670   5.146   8.177  0.0391  0.2774 -0.6028
   42UNK    C04  374  23.631   5.108   8.044  0.0618 -0.1203  0.8574
   42UNK    F05  375  23.499   5.104   8.030 -0.1812 -0.4441  0.2805
   42UNK    F06  376  23.677   5.195   7.944  0.3271 -0.2237 -0.1977
   42UNK    F07  377  23.671   4.983   8.005 -0.1301 -0.0557  0.6642
   42UNK    H08  378  23.724   5.239   8.178 -0.3152  0.4812  0.3776
   43UNK    F00  379  24.189   2.202  10.114 -0.7098 -1.0262 -0.2167
   43UNK    C01  380  24.294   2.139  10.059  0.1178  0.6502  0.3178
   43UNK    H02  381  24.318   2.054  10.122  1.1154  1.6054  1.2460
   43UNK    C03  382  24.369   2.195   9.966  0.5826  0.1921 -0.0356
   43UNK    C04  383  24.317   2.264   9.849  0.3605  0.3541  0.9977
   43UNK    F05  384  24.187   2.233   9.811 -0.2379  0.0107 -0.6402
   43UNK    F06  385  24.322   2.400   9.859  0.2413 -0.2756  0.0692
   43UNK    F07  386  24.390   2.241   9.737  0.3962 -0.0002 -0.0923
   43UNK    H08  387  24.473   2.169   9.952  0.0459 -2.4852  0.6500
   44UNK    F00  388  23.394   4.741   8.200 -0.3368  0.2590  0.0595
   44UNK    C01  389  23.444   4.773   8.078  0.3166 -0.4828 -0.7693
   44UNK    H02  390  23.435   4.878   8.051  1.0660 -0.1254  0.3311
   44UNK    C03  391  23.482   4.666   8.000  0.1648 -0.0396  0.1597
   44UNK    C04  392  23.575   4.663   7.884  0.9004  0.0694  0.6186
   44UNK    F05  393  23.539   4.763   7.803  0.2847  0.0854 -0.2202
   44UNK    F06  394  23.704   4.676   7.921  0.1508 -0.0106 -0.4409
   44UNK    F07  395  23.569   4.553   7.803  0.3514 -0.2673  0.0475
   44UNK    H08  396  23.426   4.575   8.017  0.2281 -0.3218 -1.1170
   45UNK    F00  397  22.711   2.190   6.285  0.6100 -0.3009 -0.6417
   45UNK    C01  398  22.579   2.168   6.275  0.2749 -0.2045 -0.1999
   45UNK    H02  399  22.541   2.190   6.175  2.1575  1.0096 -0.6777
   45UNK    C03  400  22.509   2.126   6.379  0.6311  0.1587  0.1974
   45UNK    C04  401  22.489   2.203   6.501 -0.1962 -0.2815 -0.4187
   45UNK    F05  402  22.611   2.238   6.544  0.0898  0.5412  0.5637
   45UNK    F06  403  22.399   2.306   6.486 -0.3130  0.0013  0.3638
   45UNK    F07  404  22.432   2.122   6.593  0.4551 -0.8364  0.4857
   45UNK    H08  405  22.493   2.021   6.397  0.1371  0.5415  2.2392
   46UNK    F00  406  24.672   2.876   6.392 -0.4517  0.1725 -0.7299
   46UNK    C01  407  24.597   2.771   6.416  0.0284 -0.7366 -0.5138
   46UNK    H02  408  24.503   2.786   6.362 -0.9984  1.8794  1.8329
   46UNK    C03  409  24.659   2.656   6.434  0.5804  0.2883  0.1530
   46UNK    C04  410  24.753   2.616   6.329  0.2656  0.2395 -0.4173
   46UNK    F05  411  24.701   2.630   6.205  0.2270  0.3320 -0.0365
   46UNK    F06  412  24.864   2.687   6.331  0.7313  0.2953  0.3047
   46UNK    F07  413  24.807   2.489   6.339 -0.1946 -0.7358  0.5568
   46UNK    H08  414  24.611   2.579   6.492 -2.7604  2.0929 -0.0579
   47UNK    F00  415  22.609   3.738   8.995  0.2861 -0.0766  0.2483
   47UNK    C01  416  22.669   3.853   8.960  0.3636 -0.6287 -0.0934
   47UNK    H02  417  22.599   3.931   8.930  1.7487  0.7497  0.2221
   47UNK    C03  418  22.796   3.850   8.931 -0.0470 -0.0151  0.4337
   47UNK    C04  419  22.872   3.971   8.940 -0.2964 -0.3081 -0.0996
   47UNK    F05  420  22.991   3.956   8.883 -0.2736  0.0657 -0.0095
   47UNK    F06  421  22.810   4.079   8.890  0.3884 -0.1187 -0.0622
   47UNK    F07  422  22.890   4.000   9.075  0.4422 -0.3442 -0.1449
   47UNK    H08  423  22.830   3.799   8.843 -1.0350 -2.4604  1.4120
   48UNK    F00  424  24.454   0.913  10.986 -0.0186  0.2407 -0.4401
   48UNK    C01  425  24.483   0.814  11.070  0.3481 -0.4643  0.0797
   48UNK    H02  426  24.442   0.723  11.027 -1.7799  0.4862  0.0118
   48UNK    C03  427  24.573   0.831  11.165  0.2260  0.0429  0.5701
   48UNK    C04  428  24.634   0.708  11.224  0.8006  0.4580  0.3032
   48UNK    F05  429  24.713   0.645  11.136 -0.1655  0.0739  0.1321
   48UNK    F06  430  24.715   0.748  11.324  0.5201  0.2181  0.2006
   48UNK    F07  431  24.547   0.613  11.261  0.7006  0.3983 -0.0118
   48UNK    H08  432  24.570   0.909  11.239 -0.4418 -0.5229  1.1458
   49UNK    F00  433  24.593   3.673   4.598  0.4889 -0.1590  0.1195
   49UNK    C01  434  24.661   3.786   4.591  0.4987 -0.7716 -0.1789
   49UNK    H02  435  24.763   3.760   4.620  0.5462  0.3358  0.6728
   49UNK    C03  436  24.628   3.879   4.501 -1.2186 -0.0546  0.5566
   49UNK    C04  437  24.573   3.847   4.367 -0.4663 -0.0628  0.3063
   49UNK    F05  438  24.623   3.729   4.322  0.2379 -0.2393 -0.3266
   49UNK    F06  439  24.434   3.838   4.363 -0.2843 -0.0798  0.3612
   49UNK    F07  440  24.627   3.931   4.270  0.0229  0.3338  0.1215
   49UNK    H08  441  24.630   3.983   4.527 -0.8422  0.3662 -1.0971
   50UNK    F00  442  22.569   1.791  14.483 -0.0560 -1.0294 -0.5528
   50UNK    C01  443  22.615   1.681  14.421 -1.1568  0.3386 -0.1747
   50UNK    H02  444  22.719   1.668  14.448 -0.8604 -2.6006 -2.4760
   50UNK    C03  445  22.526   1.592  14.380  0.2685 -1.0986  0.0270
   50UNK    C04  446  22.571   1.465  14.318  0.2820  0.3790 -0.3111
   50UNK    F05  447  22.681   1.491  14.247  0.2313  0.5002 -0.0686
   50UNK    F06  448  22.612   1.383  14.419 -0.3918 -0.5085 -0.3844
   50UNK    F07  449  22.471   1.406  14.254  0.3521  0.4092  0.8349
   50UNK    H08  450  22.421   1.616  14.379  0.2780 -1.0652  0.0711
   51UNK    F00  451  25.460   2.938   9.207 -0.0366 -0.0590 -0.4334
   51UNK    C01  452  25.352   2.860   9.211  0.7666 -0.0062  0.0016
   51UNK    H02  453  25.349   2.807   9.306 -0.9041  1.4050  0.7562
   51UNK    C03  454  25.247   2.890   9.139  0.4286 -0.6539  0.1870
   51UNK    C04  455  25.164   3.016   9.136 -0.0365  0.3295  0.5889
   51UNK    F05  456  25.149   3.057   9.261 -0.4427 -0.4934 -0.1976
   51UNK    F06  457  25.238   3.111   9.072 -0.1540  0.3099 -0.0106
   51UNK    F07  458  25.035   3.010   9.081  0.0692 -0.4216  0.0339
   51UNK    H08  459  25.241   2.836   9.046  0.7099 -1.5764  0.7060
   52UNK    F00  460  21.802   1.463   6.233 -0.2595 -0.0770 -0.1959
   52UNK    C01  461  21.856   1.541   6.318 -0.1873  0.0376 -0.3280
   52UNK    H02  462  21.939   1.598   6.275  0.0715  1.1982  1.6252
   52UNK    C03  463  21.803   1.559   6.439 -0.3553  0.3165  0.5033
   52UNK    C04  464  21.808   1.691   6.502 -0.5393 -0.2846 -0.3541
   52UNK    F05  465  21.699   1.757   6.463 -0.4295  0.0869 -0.1722
   52UNK    F06  466  21.813   1.676   6.639  0.1671  0.3388 -0.1767
   52UNK    F07  467  21.918   1.760   6.468  0.1435  0.7703 -0.3594
   52UNK    H08  468  21.721   1.500   6.478 -1.6563  1.2216 -0.8165
   53UNK    F00  469  22.932   3.657   9.400 -0.0721 -0.1720  0.2746
   53UNK    C01  470  23.043   3.623   9.334  0.1141 -0.8679 -0.3954
   53UNK    H02  471  23.135   3.627   9.393  0.3861 -0.9135 -0.8121
   53UNK    C03  472  23.032   3.559   9.221 -0.1847  0.6446 -0.5941
   53UNK    C04  473  23.151   3.487   9.169  0.3256 -0.0793  0.0966
   53UNK    F05  474  23.117   3.443   9.049  0.1383  0.6893 -0.0604
   53UNK    F06  475  23.249   3.570   9.150 -0.1490 -0.3535 -0.6234
   53UNK    F07  476  23.189   3.393   9.262  0.1161  0.0624 -0.1502
   53UNK    H08  477  22.940   3.503   9.207 -1.3039  2.2334  0.2309
   54UNK    F00  478  23.423   4.406   9.322 -0.1780  0.1870  0.1774
   54UNK    C01  479  23.496   4.498   9.384 -0.3578  0.1290 -0.8899
   54UNK    H02  480  23.600   4.468   9.396 -0.4159 -0.1718 -1.1504
   54UNK    C03  481  23.429   4.590   9.454 -0.4290  0.2258  0.6423
   54UNK    C04  482  23.481   4.714   9.508  0.1996  0.0766 -0.6808
   54UNK    F05  483  23.417   4.824   9.464  0.1326 -0.4900 -0.1537
   54UNK    F06  484  23.481   4.718   9.645 -0.4345 -0.1892  0.5041
   54UNK    F07  485  23.617   4.727   9.475  0.4119  0.5457  0.2799
   54UNK    H08  486  23.322   4.579   9.451 -0.5859  2.0205 -1.3313
   55UNK    F00  487  22.636   2.564   8.824  0.4896 -0.4458 -0.0861
   55UNK    C01  488  22.600   2.572   8.694  0.1028 -0.2040  0.1779
   55UNK    H02  489  22.597   2.678   8.666  2.9607  0.2012  1.2548
   55UNK    C03  490  22.566   2.468   8.621  0.4367  0.3206 -0.0291
   55UNK    C04  491  22.557   2.453   8.474 -0.0018 -0.2152  0.4351
   55UNK    F05  492  22.523   2.332   8.423  0.5377  0.0081  0.1359
   55UNK    F06  493  22.460   2.540   8.426 -0.0131 -0.1212 -0.1282
   55UNK    F07  494  22.671   2.488   8.402 -0.6827  0.0849  0.6966
   55UNK    H08  495  22.575   2.372   8.670  0.5434 -0.4993 -1.5986
   56UNK    F00  496  24.146   4.409   6.592  0.2731  0.9269  0.1755
   56UNK    C01  497  24.251   4.332   6.631 -0.0306  0.1280 -1.4275
   56UNK    H02  498  24.243   4.240   6.572 -0.2377 -1.7036  1.3495
   56UNK    C03  499  24.346   4.387   6.704 -0.0453  0.4885 -0.1027
   56UNK    C04  500  24.480   4.326   6.697 -0.5219  0.2034 -0.1578
   56UNK    F05  501  24.546   4.372   6.801 -0.6893 -0.2523  0.3807
   56UNK    F06  502  24.472   4.193   6.728  0.1092 -0.3088 -0.2196
   56UNK    F07  503  24.551   4.355   6.585  0.6057  0.2857 -0.4551
   56UNK    H08  504  24.329   4.446   6.793  0.7982  2.5841 -1.2986
   57UNK    F00  505  24.605   1.311   9.492  0.0147 -0.0953  0.7038
   57UNK    C01  506  24.489   1.361   9.533  0.2600 -0.5166  0.6616
   57UNK    H02  507  24.498   1.465   9.565 -0.3106 -0.0780 -0.5757
   57UNK    C03  508  24.373   1.297   9.513 -0.3796  0.7788 -0.0800
   57UNK    C04  509  24.248   1.353   9.558  0.4447  0.3570  0.0763
   57UNK    F05  510  24.143   1.277   9.531 -0.2844 -0.0490 -0.3185
   57UNK    F06  511  24.236   1.371   9.690 -0.5227 -0.7268 -0.6609
   57UNK    F07  512  24.234   1.478   9.511 -0.1638  0.1044  0.1539
   57UNK    H08  513  24.374   1.191   9.494 -0.4374  0.7347  0.1651
   58UNK    F00  514  18.182   0.299  13.713 -0.1194  0.2039 -0.0881
   58UNK    C01  515  18.232   0.184  13.668 -0.3706 -0.0616 -0.4139
   58UNK    H02  516  18.178   0.097  13.707  1.2614 -0.7891  0.2491
   58UNK    C03  517  18.289   0.185  13.550 -0.4744  0.4264  0.0638
   58UNK    C04  518  18.341   0.068  13.479 -0.0032  0.5984 -0.0800
   58UNK    F05  519  18.401  -0.026  13.552 -0.2887  0.2176 -0.3635
   58UNK    F06  520  18.230   0.021  13.419  0.2562 -0.4056 -0.4792
   58UNK    F07  521  18.429   0.102  13.389  0.2720  0.2925 -0.1412
   58UNK    H08  522  18.329   0.277  13.510  0.3203  0.7350  1.5083
   59UNK    F00  523  25.009   3.473   9.294  0.6184  0.1069 -0.0062
   59UNK    C01  524  24.986   3.367   9.378  0.7074 -0.3342 -0.1967
   59UNK    H02  525  25.057   3.286   9.363  0.8267 -0.1008 -0.8765
   59UNK    C03  526  24.861   3.351   9.429  0.1770  0.2146  0.7810
   59UNK    C04  527  24.822   3.307   9.565  0.1216 -0.2864 -0.3925
   59UNK    F05  528  24.910   3.219   9.609 -0.1988  0.7453  0.0195
   59UNK    F06  529  24.855   3.419   9.641 -0.0949 -0.2875  0.3075
   59UNK    F07  530  24.696   3.267   9.586  0.0477 -0.1167 -0.1941
   59UNK    H08  531  24.791   3.314   9.356  0.9052  1.7181 -0.6888
   60UNK    F00  532  24.832   5.070   5.645  0.4253  0.0028 -0.0996
   60UNK    C01  533  24.923   4.973   5.657 -0.2630 -0.4519  0.0676
   60UNK    H02  534  24.923   4.910   5.569  2.5546  0.5200 -0.6875
   60UNK    C03  535  25.004   4.962   5.766  0.3794  0.0599  0.5955
   60UNK    C04  536  25.127   4.885   5.772 -0.6933  0.5234 -0.2981
   60UNK    F05  537  25.122   4.771   5.706  0.3561  0.4035 -0.4580
   60UNK    F06  538  25.228   4.960   5.722 -0.1318 -0.0374 -0.3893
   60UNK    F07  539  25.157   4.853   5.904 -0.0914 -0.2411 -0.1519
   60UNK    H08  540  24.970   5.009   5.857 -0.6400 -2.0153  1.3116
   61UNK    F00  541  23.794   3.266   8.681  0.3897 -0.0765  0.1565
   61UNK    C01  542  23.697   3.171   8.671  0.6556  0.5644 -0.2766
   61UNK    H02  543  23.705   3.112   8.580 -1.6957 -0.4790  0.1501
   61UNK    C03  544  23.597   3.167   8.765 -0.4599 -0.3394 -0.0156
   61UNK    C04  545  23.499   3.274   8.776 -0.5028 -0.5480 -0.5767
   61UNK    F05  546  23.432   3.279   8.891  0.5298 -0.0105 -0.6924
   61UNK    F06  547  23.570   3.393   8.786  0.1900  0.2581  0.0343
   61UNK    F07  548  23.421   3.294   8.664  0.4610 -0.0706 -0.3132
   61UNK    H08  549  23.606   3.093   8.843  0.1982  0.9940  1.1949
   62UNK    F00  550  24.443   2.726   6.919 -0.1898 -0.1214 -0.5191
   62UNK    C01  551  24.395   2.613   6.864 -1.0867  0.1869  0.4451
   62UNK    H02  552  24.391   2.623   6.756  0.4553  1.4733  0.4852
   62UNK    C03  553  24.395   2.489   6.925  0.5612 -0.0520  0.0178
   62UNK    C04  554  24.294   2.429   7.015  0.4202 -0.1074 -0.0067
   62UNK    F05  555  24.195   2.378   6.932  0.5633  0.2968  0.5033
   62UNK    F06  556  24.344   2.328   7.085  0.2626 -0.1691  0.2479
   62UNK    F07  557  24.236   2.522   7.096 -0.2243  0.2491  0.6001
   62UNK    H08  558  24.482   2.428   6.905  0.9001  0.7763 -1.0542
   63UNK    F00  559  26.046   1.174   7.094  0.3266 -0.2634  0.2256
   63UNK    C01  560  26.110   1.080   7.167 -0.1740  0.4283 -0.0479
   63UNK    H02  561  26.211   1.063   7.132 -0.2628  0.2471 -0.2081
   63UNK    C03  562  26.072   1.069   7.288  0.4056  0.5987 -0.1577
   63UNK    C04  563  26.152   0.993   7.392  0.3383 -0.6378 -0.2371
   63UNK    F05  564  26.225   0.896   7.338 -0.0544  0.0271 -0.2890
   63UNK    F06  565  26.246   1.068   7.455  0.1403  0.2151 -0.1747
   63UNK    F07  566  26.067   0.938   7.492 -0.2328  0.1292 -0.2674
   63UNK    H08  567  26.001   1.143   7.324  1.5124  1.7243 -0.2315
   64UNK    F00  568  24.304   3.181   9.741 -0.9676 -0.2850  0.3582
   64UNK    C01  569  24.243   3.183   9.627  0.2297 -0.1334 -0.1503
   64UNK    H02  570  24.325   3.166   9.557  2.1245  0.4514  1.8441
   64UNK    C03  571  24.114   3.157   9.625  0.1317 -0.6811  0.6093
   64UNK    C04  572  24.045   3.130   9.500  0.7801  0.0309  0.0678
   64UNK    F05  573  23.908   3.144   9.506  0.2029  0.1077  0.3939
   64UNK    F06  574  24.086   3.215   9.396 -0.3288 -0.1082 -0.1285
   64UNK    F07  575  24.084   3.000   9.470  0.2394  0.2314 -0.0264
   64UNK    H08  576  24.046   3.175   9.706  0.0171  2.1851 -0.0952
   65UNK    F00  577  24.485   1.190   4.817 -0.3386  0.0027  0.2833
   65UNK    C01  578  24.560   1.111   4.893 -0.2466 -0.5874  0.3833
   65UNK    H02  579  24.504   1.073   4.978  1.5606  2.1187  2.8608
   65UNK    C03  580  24.689   1.124   4.878  0.9192  0.4166  0.3595
   65UNK    C04  581  24.780   1.031   4.948  0.7545 -0.2608 -0.2956
   65UNK    F05  582  24.786   0.908   4.898  0.1457 -0.0859  0.9143
   65UNK    F06  583  24.902   1.079   4.968  0.3309 -0.5713  0.7878
   65UNK    F07  584  24.730   1.024   5.076  0.6314 -0.2857  0.5148
   65UNK    H08  585  24.736   1.198   4.814 -1.4300  1.0539 -0.6664
   66UNK    F00  586  23.250   1.680   6.486  0.3265  0.2633  0.0062
   66UNK    C01  587  23.342   1.610   6.555 -0.0727  0.3732  0.4133
   66UNK    H02  588  23.385   1.671   6.635  0.2765  2.2407 -1.1408
   66UNK    C03  589  23.376   1.490   6.517  0.6663  0.0012 -0.2123
   66UNK    C04  590  23.459   1.400   6.597 -0.1209 -0.1258  0.1636
   66UNK    F05  591  23.381   1.306   6.651  0.4840 -0.0423  0.5340
   66UNK    F06  592  23.559   1.343   6.536  0.5791 -0.6146 -0.1800
   66UNK    F07  593  23.521   1.473   6.693 -0.3191 -0.2376 -0.4170
   66UNK    H08  594  23.346   1.455   6.420  1.0393 -1.2050  0.0944
   67UNK    F00  595  24.172   3.794   5.821  0.5189 -0.0104  0.1762
   67UNK    C01  596  24.266   3.831   5.909  0.6223  0.3776 -0.4453
   67UNK    H02  597  24.335   3.748   5.929 -0.6121 -0.8684 -1.2373
   67UNK    C03  598  24.302   3.960   5.907  0.1992  0.2964  0.0804
   67UNK    C04  599  24.421   4.002   5.988 -0.2930 -0.5907  0.4359
   67UNK    F05  600  24.440   3.933   6.098  0.0439 -0.0406  0.2436
   67UNK    F06  601  24.539   3.990   5.917 -0.0336 -0.2971  0.2834
   67UNK    F07  602  24.411   4.133   6.023  0.1264  0.5868  0.1128
   67UNK    H08  603  24.242   4.045   5.880 -0.0471 -0.2611 -1.1982
   68UNK    F00  604  22.105   3.532   6.868 -0.2913 -0.3432 -0.0494
   68UNK    C01  605  22.159   3.461   6.772  0.0572 -0.2536  0.0832
   68UNK    H02  606  22.084   3.406   6.716  1.6146 -2.8475  0.4315
   68UNK    C03  607  22.294   3.451   6.762 -0.2034 -0.1910  0.2123
   68UNK    C04  608  22.351   3.414   6.633 -0.3214 -0.7100  0.2631
   68UNK    F05  609  22.476   3.388   6.639  0.4830  0.3786 -0.0800
   68UNK    F06  610  22.287   3.303   6.589  0.0835  0.1442 -0.1331
   68UNK    F07  611  22.330   3.516   6.543 -0.1243 -0.1522  0.1134
   68UNK    H08  612  22.356   3.516   6.822  1.2944 -0.5937 -0.8819
   69UNK    F00  613  23.221   3.681   7.721 -0.4211  0.7848 -0.4478
   69UNK    C01  614  23.249   3.598   7.822 -0.6843  0.2291 -0.5667
   69UNK    H02  615  23.357   3.584   7.812 -0.1751  2.5736  1.0529
   69UNK    C03  616  23.166   3.510   7.866  0.4113  0.5429  0.1110
   69UNK    C04  617  23.152   3.384   7.784  0.6080  1.0301  0.8410
   69UNK    F05  618  23.040   3.320   7.831  0.4373 -0.4675 -0.2375
   69UNK    F06  619  23.115   3.392   7.651 -0.0848  0.1388 -0.2402
   69UNK    F07  620  23.269   3.317   7.791 -0.0431  0.4269  0.1194
   69UNK    H08  621  23.168   3.480   7.969 -1.8510  0.3585  0.1253
   70UNK    F00  622  23.340   0.338   8.386  0.0340 -0.0226 -0.0244
   70UNK    C01  623  23.272   0.325   8.267  0.1895 -0.1210 -0.7098
   70UNK    H02  624  23.169   0.292   8.282 -1.1156  4.0014  0.1424
   70UNK    C03  625  23.319   0.392   8.161  0.6065 -0.4619 -1.0779
   70UNK    C04  626  23.441   0.367   8.090 -0.1489 -0.4163 -0.4219
   70UNK    F05  627  23.489   0.472   8.028  0.2117 -0.5653  0.8927
   70UNK    F06  628  23.548   0.341   8.168  0.0281  0.0745 -0.8913
   70UNK    F07  629  23.424   0.271   7.995  0.0534 -0.0333  0.0712
   70UNK    H08  630  23.274   0.488   8.142 -0.0376 -0.0843  2.1600
   71UNK    F00  631  23.271   3.914  11.327  1.1821  0.0415 -0.3771
   71UNK    C01  632  23.250   4.046  11.294 -0.6157  0.4895 -0.0741
   71UNK    H02  633  23.234   4.051  11.186  0.1790 -3.9229 -0.4942
   71UNK    C03  634  23.293   4.145  11.368  0.2019 -0.4652  0.1288
   71UNK    C04  635  23.275   4.290  11.330 -0.1444  0.3075  0.1871
   71UNK    F05  636  23.145   4.321  11.359 -0.1262 -0.1962  0.3736
   71UNK    F06  637  23.368   4.359  11.405  0.5411  0.1173 -0.4540
   71UNK    F07  638  23.297   4.307  11.197 -0.5521  0.1438  0.2030
   71UNK    H08  639  23.303   4.133  11.475  1.6634  1.0685  0.1874
   72UNK    F00  640  24.215   3.130   6.440  0.5918  0.2005 -0.4784
   72UNK    C01  641  24.165   3.010   6.415  0.5937 -0.1349  0.1876
   72UNK    H02  642  24.114   3.002   6.319  1.0305 -0.8261  0.0068
   72UNK    C03  643  24.149   2.926   6.517 -0.0637 -0.9941 -0.5365
   72UNK    C04  644  24.167   2.781   6.515 -0.0748 -0.2905  0.2663
   72UNK    F05  645  24.093   2.719   6.612  0.1953  0.2395  0.2340
   72UNK    F06  646  24.147   2.717   6.394 -0.6602  0.2628  0.5941
   72UNK    F07  647  24.302   2.766   6.542  0.4715  0.1793 -0.1459
   72UNK    H08  648  24.119   2.969   6.611  1.5805 -0.0300 -0.4347
   73UNK    F00  649  23.941   0.370   6.418 -0.7982  0.8534  0.1200
   73UNK    C01  650  23.842   0.454   6.439  0.4000  0.7744  0.3920
   73UNK    H02  651  23.774   0.428   6.520  0.1379  0.2356  0.0025
   73UNK    C03  652  23.802   0.532   6.336 -0.1977 -0.5005  0.2296
   73UNK    C04  653  23.712   0.656   6.363 -0.3369 -0.1748 -0.2112
   73UNK    F05  654  23.668   0.688   6.240  0.0288 -0.3365  0.1757
   73UNK    F06  655  23.607   0.635   6.442  0.1142 -0.5444 -0.3844
   73UNK    F07  656  23.779   0.760   6.419 -0.4325 -0.2723 -0.0489
   73UNK    H08  657  23.862   0.545   6.247 -0.7106 -0.6178 -0.1369
   74UNK    F00  658  23.579   1.632  10.263  0.4112 -0.0252  0.6617
   74UNK    C01  659  23.590   1.502  10.237 -0.7125 -0.3860 -0.6432
   74UNK    H02  660  23.505   1.444  10.276 -1.5076  2.6578  2.4173
   74UNK    C03  661  23.690   1.453  10.161 -0.6324  0.7074 -0.2892
   74UNK    C04  662  23.824   1.421  10.207 -0.3620 -0.6853 -0.1530
   74UNK    F05  663  23.834   1.291  10.238 -0.0812 -0.0101  0.4229
   74UNK    F06  664  23.905   1.435  10.094  0.2904  0.4458 -0.1995
   74UNK    F07  665  23.879   1.508  10.298  0.0984 -0.1670  0.3526
   74UNK    H08  666  23.676   1.431  10.056  1.7822  0.3471 -0.5622
   75UNK    F00  667  23.144   3.642   8.579 -0.2166  0.3900  0.5187
   75UNK    C01  668  23.197   3.556   8.668 -0.0820 -0.9042 -0.0502
   75UNK    H02  669  23.305   3.565   8.663 -0.2529  2.2623  0.9959
   75UNK    C03  670  23.124   3.469   8.733  0.1878 -0.0609  0.1609
   75UNK    C04  671  22.979   3.493   8.771 -0.2608  0.4085  0.4173
   75UNK    F05  672  22.960   3.605   8.839 -0.5017  0.0092  0.5175
   75UNK    F06  673  22.906   3.492   8.655  0.0534 -0.0833 -0.5530
   75UNK    F07  674  22.937   3.388   8.845  0.2450 -0.5292  0.5263
   75UNK    H08  675  23.153   3.367   8.751 -0.6175  0.1805  3.1954
   76UNK    F00  676  23.023   3.976   6.142 -0.2831  0.1115  0.1894
   76UNK    C01  677  23.097   3.890   6.220 -0.5263 -0.2464 -0.3786
   76UNK    H02  678  23.101   3.915   6.326 -0.4677 -2.4242  0.1721
   76UNK    C03  679  23.159   3.790   6.161  0.5416  0.3400 -0.0529
   76UNK    C04  680  23.241   3.690   6.230 -0.0195  0.3973  0.0027
   76UNK    F05  681  23.159   3.618   6.311  0.0892  0.0249 -0.1858
   76UNK    F06  682  23.313   3.606   6.150 -0.4609  0.0424 -0.4100
   76UNK    F07  683  23.323   3.756   6.320  0.5555 -0.1127  0.1637
   76UNK    H08  684  23.193   3.808   6.060 -3.6235  1.7403 -1.3341
   77UNK    F00  685  22.411   4.213   7.335  0.4850 -0.0090  0.5151
   77UNK    C01  686  22.394   4.091   7.387 -0.4654 -0.2001  0.4249
   77UNK    H02  687  22.455   4.092   7.478 -0.0876 -0.3164  0.1756
   77UNK    C03  688  22.276   4.032   7.377  0.6722 -0.3474 -0.4115
   77UNK    C04  689  22.238   3.927   7.474 -0.6743  0.1730 -0.2080
   77UNK    F05  690  22.143   3.846   7.420 -0.0168  0.2751  0.3143
   77UNK    F06  691  22.340   3.851   7.526 -0.2463  0.2825  0.1421
   77UNK    F07  692  22.178   3.999   7.575 -0.2208  0.3448 -0.2778
   77UNK    H08  693  22.236   4.010   7.279 -0.9817 -1.0670  0.4033
   78UNK    F00  694  23.198   0.247   7.553 -0.0436  0.1939 -0.4463
   78UNK    C01  695  23.200   0.218   7.684  0.2676 -0.4612  0.2782
   78UNK    H02  696  23.158   0.121   7.709 -1.0397 -0.0036 -0.1173
   78UNK    C03  697  23.235   0.313   7.771  0.3822  0.6405  0.0745
   78UNK    C04  698  23.141   0.392   7.845 -0.6461 -0.0754  0.4349
   78UNK    F05  699  23.045   0.449   7.766 -0.2649 -0.2249 -0.4709
   78UNK    F06  700  23.074   0.332   7.946 -0.4592 -0.5601  0.1625
   78UNK    F07  701  23.209   0.501   7.900  0.0853 -0.3314  0.0604
   78UNK    H08  702  23.325   0.370   7.760  0.6778  0.4887  1.5505
   79UNK    F00  703  24.681   4.489   6.216  0.4688  0.6523 -0.4154
   79UNK    C01  704  24.806   4.467   6.171 -0.0964  0.1019 -0.3158
   79UNK    H02  705  24.881   4.510   6.237  0.6015  0.5612 -1.4014
   79UNK    C03  706  24.819   4.384   6.071  0.3913 -0.5106  0.2426
   79UNK    C04  707  24.793   4.238   6.086 -0.1667 -0.0283  0.1940
   79UNK    F05  708  24.836   4.182   6.199  0.6239 -0.2149 -0.8643
   79UNK    F06  709  24.657   4.221   6.082 -0.0508  0.6115 -0.7874
   79UNK    F07  710  24.854   4.166   5.988 -0.3745  0.3803 -0.0553
   79UNK    H08  711  24.914   4.396   6.022 -0.0959  1.0833 -0.3325
   80UNK    F00  712  21.961   1.477   6.820 -0.0786  0.0674  0.1731
   80UNK    C01  713  21.887   1.384   6.757 -0.5069  0.3246  0.0482
   80UNK    H02  714  21.783   1.409   6.781 -0.2773  0.2632  1.1191
   80UNK    C03  715  21.919   1.259   6.751 -0.5107 -0.4829 -0.4317
   80UNK    C04  716  21.882   1.188   6.623  0.6044 -0.1004 -0.9529
   80UNK    F05  717  21.966   1.226   6.521 -0.0742 -0.0914 -0.5476
   80UNK    F06  718  21.890   1.061   6.633 -0.4311  0.2768  0.2560
   80UNK    F07  719  21.758   1.224   6.573 -0.2807 -0.0080  0.1658
   80UNK    H08  720  22.019   1.229   6.779 -0.8116 -1.0443  0.0563
   81UNK    F00  721  24.789   1.654   6.353  0.2359 -0.1465 -0.0401
   81UNK    C01  722  24.748   1.529   6.347 -0.9941 -0.1881 -0.4568
   81UNK    H02  723  24.788   1.476   6.261  0.4131 -0.4406  0.3319
   81UNK    C03  724  24.627   1.511   6.397 -0.4158 -0.3487 -0.1286
   81UNK    C04  725  24.584   1.378   6.445 -0.4441 -0.2142  0.3926
   81UNK    F05  726  24.462   1.385   6.484  0.3020  0.2957  0.5273
   81UNK    F06  727  24.578   1.293   6.335 -0.1826 -0.1181  0.1673
   81UNK    F07  728  24.670   1.323   6.538  0.0369 -0.0519  0.2593
   81UNK    H08  729  24.583   1.590   6.456 -0.2610  1.2279 -2.0525
   82UNK    F00  730  24.039   4.770   7.788 -0.4082 -0.1367 -0.1853
   82UNK    C01  731  23.975   4.870   7.722 -0.1005  0.4268 -0.1337
   82UNK    H02  732  23.989   4.855   7.615 -1.6744  1.2340 -0.4776
   82UNK    C03  733  23.943   4.979   7.790 -0.1432 -0.0034 -0.6227
   82UNK    C04  734  24.018   5.099   7.810 -0.1627  0.1796  0.2331
   82UNK    F05  735  24.020   5.181   7.700  0.1725  0.0675 -0.2788
   82UNK    F06  736  23.961   5.173   7.910  0.0649 -0.4960 -0.4893
   82UNK    F07  737  24.139   5.056   7.843 -0.0576 -0.0080  0.0345
   82UNK    H08  738  23.839   4.995   7.816 -0.5832 -0.0879 -2.2846
   83UNK    F00  739  23.086   3.349   6.076  0.1419 -0.0899 -0.2467
   83UNK    C01  740  23.112   3.253   6.160 -0.0563 -0.1024 -0.1467
   83UNK    H02  741  23.184   3.296   6.230 -0.8448  1.1698 -0.1081
   83UNK    C03  742  23.010   3.176   6.203  0.3237  0.3714  0.0846
   83UNK    C04  743  22.990   3.043   6.142 -0.1156  0.8989 -0.1716
   83UNK    F05  744  23.096   2.962   6.161 -0.0332  0.0112 -0.3671
   83UNK    F06  745  22.880   2.980   6.194 -0.0428  0.2169 -0.5218
   83UNK    F07  746  22.964   3.065   6.010  0.0841  0.5828 -0.2129
   83UNK    H08  747  22.919   3.229   6.227 -0.8646 -1.0400 -1.2655
   84UNK    F00  748  19.081   4.990   7.705  0.2241  0.2853  0.3409
   84UNK    C01  749  19.052   5.095   7.780 -0.0018 -0.6195 -0.1651
   84UNK    H02  750  18.948   5.121   7.799  0.0594 -1.8023  1.8530
   84UNK    C03  751  19.149   5.131   7.864  0.5755 -0.1940  0.1782
   84UNK    C04  752  19.143   5.207   7.988 -0.4590 -0.3616  0.3516
   84UNK    F05  753  19.257   5.240   8.050  0.3319  0.0029  0.3908
   84UNK    F06  754  19.076   5.324   7.962 -0.2462  0.1793  0.1189
   84UNK    F07  755  19.065   5.137   8.079 -0.4660  0.6053 -0.0217
   84UNK    H08  756  19.248   5.092   7.843  1.4526  3.3704 -2.9457
   85UNK    F00  757  24.845   0.255   7.912  0.2333  0.4451  0.0734
   85UNK    C01  758  24.749   0.165   7.947 -0.1866  0.2363  0.6498
   85UNK    H02  759  24.722   0.179   8.052 -1.4299 -2.0018  0.6413
   85UNK    C03  760  24.734   0.058   7.874  0.6103  0.1216  0.1434
   85UNK    C04  761  24.598   0.010   7.837 -0.1950 -0.1845  0.5911
   85UNK    F05  762  24.515   0.010   7.946 -0.3083 -0.2976 -0.2163
   85UNK    F06  763  24.545   0.093   7.741 -0.3237 -0.0853  0.1312
   85UNK    F07  764  24.604  -0.115   7.784  0.1808  0.2632  0.3040
   85UNK    H08  765  24.816   0.030   7.810  0.8000  1.3355 -0.1600
   86UNK    F00  766  21.972   4.989   0.714 -0.1794  0.5468 -0.1775
   86UNK    C01  767  21.866   5.056   0.725 -0.3999 -0.5668 -0.8600
   86UNK    H02  768  21.843   5.063   0.832  3.6848  1.6992 -0.0063
   86UNK    C03  769  21.792   5.092   0.623 -0.0733 -0.3099 -1.3350
   86UNK    C04  770  21.765   5.225   0.574 -0.4463  0.4885 -0.1793
   86UNK    F05  771  21.765   5.297   0.687 -0.1959  0.0989 -0.2397
   86UNK    F06  772  21.850   5.265   0.475  0.1018  0.1289  0.1347
   86UNK    F07  773  21.645   5.219   0.517 -0.0990 -0.3371 -0.1573
   86UNK    H08  774  21.732   5.012   0.581 -0.1504 -0.7258 -0.4351
   87UNK    F00  775  24.308   2.504   5.075  0.2332 -0.5330 -0.2287
   87UNK    C01  776  24.303   2.390   5.140 -0.1058 -0.5760 -0.7784
   87UNK    H02  777  24.337   2.400   5.243  0.8849 -2.7805 -0.8503
   87UNK    C03  778  24.233   2.292   5.081  0.1221  0.6680  0.4449
   87UNK    C04  779  24.277   2.192   4.982  1.3249  0.7044 -0.2057
   87UNK    F05  780  24.336   2.264   4.887 -0.7165 -0.2021 -0.3072
   87UNK    F06  781  24.370   2.111   5.037 -0.3988  0.4241  0.0438
   87UNK    F07  782  24.171   2.127   4.934  0.3631 -0.3366  0.2595
   87UNK    H08  783  24.133   2.272   5.118 -0.8551  0.6885 -2.0974
   88UNK    F00  784  26.531   3.449   5.535 -0.5081 -0.1756 -0.0059
   88UNK    C01  785  26.541   3.336   5.471 -0.6438  0.4125  0.1699
   88UNK    H02  786  26.536   3.258   5.547 -0.7505 -0.7945 -1.0589
   88UNK    C03  787  26.540   3.331   5.337 -0.0841  0.0745 -0.2908
   88UNK    C04  788  26.440   3.414   5.273 -0.1020  0.1572  0.3562
   88UNK    F05  789  26.439   3.413   5.131  0.0018 -0.2650 -0.4521
   88UNK    F06  790  26.318   3.389   5.327 -0.2012 -0.4805 -0.1955
   88UNK    F07  791  26.468   3.544   5.311 -0.0639 -0.1533  0.2278
   88UNK    H08  792  26.630   3.317   5.278 -0.1025  0.5458 -0.4338
   89UNK    F00  793  22.809   0.597   8.173  0.3282 -0.6698  0.1861
   89UNK    C01  794  22.879   0.517   8.252 -0.8252  0.0422 -0.1178
   89UNK    H02  795  22.968   0.575   8.276 -0.5307 -0.9697  1.3513
   89UNK    C03  796  22.851   0.394   8.292 -0.1041  0.4841 -0.4296
   89UNK    C04  797  22.887   0.349   8.426 -0.3700 -0.7721 -0.3468
   89UNK    F05  798  22.791   0.365   8.522 -0.4758  0.1286  0.0373
   89UNK    F06  799  22.929   0.220   8.425 -0.3552 -0.2831 -0.7062
   89UNK    F07  800  22.993   0.430   8.460 -0.1439  0.3102  0.6142
   89UNK    H08  801  22.843   0.311   8.223 -2.4115  0.6942 -0.4414
   90UNK    F00  802  23.169   0.764   8.362 -0.0277 -0.1262 -0.2939
   90UNK    C01  803  23.218   0.884   8.379 -0.0840  1.1426 -0.6850
   90UNK    H02  804  23.268   0.899   8.475 -0.0145 -1.0776 -0.3525
   90UNK    C03  805  23.162   0.992   8.315  0.0008 -0.2588 -0.2946
   90UNK    C04  806  23.042   1.043   8.380  0.2187 -0.9698  0.7121
   90UNK    F05  807  22.991   1.144   8.302  0.1640  0.4504  0.3375
   90UNK    F06  808  22.953   0.939   8.404  0.5300  0.2308  0.2721
   90UNK    F07  809  23.087   1.099   8.495 -0.0341  0.4030 -0.2454
   90UNK    H08  810  23.219   1.058   8.252  2.4185  1.0701  3.1510
   91UNK    F00  811  24.248   3.651   7.125  0.1366  0.3012  0.0360
   91UNK    C01  812  24.123   3.696   7.119  0.2672 -0.9510  0.0893
   91UNK    H02  813  24.061   3.697   7.209 -2.8631  2.8165 -1.8928
   91UNK    C03  814  24.088   3.781   7.027  0.5095 -0.0287  0.3697
   91UNK    C04  815  23.952   3.848   7.024 -0.0971  0.1078 -0.2848
   91UNK    F05  816  23.930   3.919   7.135 -0.0318  0.0549 -0.1978
   91UNK    F06  817  23.961   3.931   6.916 -0.6203  0.1005  0.5063
   91UNK    F07  818  23.865   3.745   7.002 -0.3131  0.5194 -0.0012
   91UNK    H08  819  24.166   3.828   6.968  0.2552  1.5468  1.2633
   92UNK    F00  820  23.082   1.159   8.865  0.1193  0.1834 -0.2274
   92UNK    C01  821  23.112   1.269   8.786  0.6778  0.0705 -0.2951
   92UNK    H02  822  23.185   1.245   8.709  1.5488  2.0382 -0.1085
   92UNK    C03  823  23.036   1.377   8.790  0.6406 -0.4539 -0.1249
   92UNK    C04  824  23.089   1.518   8.784 -0.0039  0.3063 -0.3729
   92UNK    F05  825  23.002   1.611   8.826  0.0296 -0.0203  0.3422
   92UNK    F06  826  23.197   1.520   8.861  0.4722  0.1472  0.1418
   92UNK    F07  827  23.130   1.552   8.657  0.1711  0.3728  0.4954
   92UNK    H08  828  22.948   1.381   8.853 -0.2004 -0.3132 -1.3075
   93UNK    F00  829  23.092   2.769   7.948  0.2300  0.0232  0.1675
   93UNK    C01  830  23.181   2.862   7.923  0.1367  0.6649  0.2060
   93UNK    H02  831  23.216   2.916   8.010  2.8220  1.8304 -1.5198
   93UNK    C03  832  23.212   2.887   7.789  0.3382  0.6097 -1.5315
   93UNK    C04  833  23.126   2.960   7.699 -0.1509 -0.1703 -0.5185
   93UNK    F05  834  23.001   2.905   7.718  0.3621  0.4259  0.1457
   93UNK    F06  835  23.125   3.094   7.720 -0.0656 -0.1064  0.2544
   93UNK    F07  836  23.163   2.934   7.566 -0.3226  0.5202  0.1037
   93UNK    H08  837  23.314   2.911   7.763  0.5812  0.2832 -0.8844
   94UNK    F00  838  22.956   1.096   9.172 -0.3648 -0.2010 -0.2090
   94UNK    C01  839  22.963   0.966   9.135 -0.3857  0.0616 -0.2512
   94UNK    H02  840  22.872   0.924   9.178  0.4893 -0.7798  0.8050
   94UNK    C03  841  23.082   0.910   9.131  0.1746 -0.0094  0.0945
   94UNK    C04  842  23.166   0.862   9.244 -0.1080 -0.0206 -0.0044
   94UNK    F05  843  23.298   0.851   9.208 -0.2029  0.3261  0.2665
   94UNK    F06  844  23.165   0.958   9.342 -0.0412  0.2947 -0.4158
   94UNK    F07  845  23.125   0.752   9.306  0.2131 -0.1789  0.1860
   94UNK    H08  846  23.141   0.928   9.042  0.6352  1.5828  0.6914
   95UNK    F00  847  25.364   3.333   7.774 -0.2374  0.1355 -0.3819
   95UNK    C01  848  25.327   3.206   7.744 -0.2165  0.5288 -0.9050
   95UNK    H02  849  25.357   3.194   7.639 -0.1510 -1.9541 -0.6294
   95UNK    C03  850  25.325   3.120   7.843  0.3272 -0.2436 -0.1471
   95UNK    C04  851  25.422   3.129   7.954  0.0499  0.1175  0.2707
   95UNK    F05  852  25.397   3.224   8.048  0.2024 -0.5610  0.0623
   95UNK    F06  853  25.426   3.007   8.013  0.3544 -0.4974  0.1973
   95UNK    F07  854  25.551   3.141   7.916 -0.1820 -0.5218 -0.1564
   95UNK    H08  855  25.286   3.021   7.823 -0.0653 -0.4713  1.6526
   96UNK    F00  856  25.012   0.544  10.770  0.5911  0.2529 -0.2382
   96UNK    C01  857  24.945   0.587  10.872 -0.2726  0.0983  0.0039
   96UNK    H02  858  25.012   0.619  10.952 -2.2676  0.9881  1.3759
   96UNK    C03  859  24.811   0.589  10.886  0.3994 -0.8514 -0.8260
   96UNK    C04  860  24.729   0.652  10.784 -0.1717 -0.3195  0.1055
   96UNK    F05  861  24.709   0.564  10.684 -0.4219  0.3929  0.1700
   96UNK    F06  862  24.619   0.694  10.846  0.3560 -0.6860 -0.0607
   96UNK    F07  863  24.814   0.749  10.730  0.4259  0.2135  0.5120
   96UNK    H08  864  24.761   0.507  10.935  0.3476  0.1140  0.7837
   97UNK    F00  865  22.488   4.003   6.765 -0.0826 -0.1199 -0.2262
   97UNK    C01  866  22.439   3.942   6.877 -0.6686 -0.3993  0.3543
   97UNK    H02  867  22.361   3.877   6.839  1.1088 -1.8672 -0.8957
   97UNK    C03  868  22.516   3.916   6.986 -0.3549 -1.0762  0.4214
   97UNK    C04  869  22.494   3.813   7.087 -0.4594  0.5143  0.4593
   97UNK    F05  870  22.514   3.683   7.042  0.0989 -0.2724  0.8405
   97UNK    F06  871  22.559   3.844   7.201 -0.0500 -0.5659 -0.3465
   97UNK    F07  872  22.359   3.823   7.112 -0.2434  0.6329 -0.0374
   97UNK    H08  873  22.600   3.979   7.010 -0.3948 -1.9688  3.1502
   98UNK    F00  874  22.915   5.006   5.935  0.2320 -0.2105 -0.2429
   98UNK    C01  875  22.902   4.997   6.070  0.2891  0.9402 -0.4045
   98UNK    H02  876  22.845   5.080   6.110  0.3155  1.1274 -0.7593
   98UNK    C03  877  22.908   4.882   6.130  0.8523  0.0757 -0.0528
   98UNK    C04  878  22.844   4.872   6.262  0.6251  1.0874 -0.7092
   98UNK    F05  879  22.883   4.757   6.318 -0.0797  0.1839 -0.1598
   98UNK    F06  880  22.881   4.985   6.338 -0.1049 -0.1728 -0.3342
   98UNK    F07  881  22.709   4.867   6.249 -0.3180 -0.3231  0.5715
   98UNK    H08  882  22.909   4.784   6.084 -1.9805 -2.1568  4.2826
   99UNK    F00  883  22.264   1.056   6.654  0.3691 -0.2011  0.1822
   99UNK    C01  884  22.390   1.065   6.686 -0.2144 -0.5419  0.5311
   99UNK    H02  885  22.410   0.964   6.722 -0.0947 -0.7698 -0.1808
   99UNK    C03  886  22.471   1.122   6.604  0.0215 -0.8445  0.8340
   99UNK    C04  887  22.618   1.100   6.596  0.2421  0.2911  0.3731
   99UNK    F05  888  22.646   1.011   6.502 -0.1082 -0.1478  0.0282
   99UNK    F06  889  22.681   1.209   6.538  0.2248 -0.2390 -0.3463
   99UNK    F07  890  22.683   1.074   6.712  0.0242 -0.4565 -0.3452
   99UNK    H08  891  22.436   1.184   6.523  4.2893  0.8878  0.1862
  100UNK    F00  892  24.065   1.302   9.065 -0.0562  0.4818 -0.4550
  100UNK    C01  893  24.045   1.201   8.978 -0.9761 -0.0047  0.2326
  100UNK    H02  894  23.998   1.113   9.022 -1.1540  0.3456  0.7489
  100UNK    C03  895  24.054   1.230   8.847  0.8003  0.6918 -0.2767
  100UNK    C04  896  24.174   1.174   8.782 -0.7010 -0.1802  0.6974
  100UNK    F05  897  24.154   1.066   8.702  0.1185  0.0469 -0.3428
  100UNK    F06  898  24.239   1.267   8.707  0.2684  0.2861 -0.2663
  100UNK    F07  899  24.282   1.153   8.860  0.1774 -0.1011  0.2135
  100UNK    H08  900  24.032   1.331   8.816 -0.2667  1.2339  2.1438
  101UNK    F00  901  24.937   0.294   6.044  0.1116  0.1761 -0.3294
  101UNK    C01  902  24.895   0.198   6.120  1.3196 -0.4305 -0.4934
  101UNK    H02  903  24.953   0.198   6.212 -2.2876  0.2742  1.8708
  101UNK    C03  904  24.791   0.122   6.107 -0.3290  0.5410  0.5096
  101UNK    C04  905  24.718   0.072   6.222 -0.9305  0.0145  0.4245
  101UNK    F05  906  24.669  -0.055   6.215 -0.2475 -0.1500 -0.0620
  101UNK    F06  907  24.784   0.075   6.341  0.4406 -0.5961  0.8432
  101UNK    F07  908  24.609   0.145   6.244  0.0519  0.5100 -0.3478
  101UNK    H08  909  24.800   0.052   6.026  1.0300  0.4045  0.7755
  102UNK    F00  910  25.366   3.075   8.295  0.5986 -0.4513 -0.2494
  102UNK    C01  911  25.254   3.011   8.254 -0.8294  0.0384  0.1851
  102UNK    H02  912  25.221   3.083   8.179  2.8965  1.4962 -0.1312
  102UNK    C03  913  25.264   2.879   8.267 -0.0668  0.8728  0.2308
  102UNK    C04  914  25.189   2.779   8.188 -0.3880  0.2632  0.2347
  102UNK    F05  915  25.065   2.763   8.252 -0.3846 -0.2613  0.3054
  102UNK    F06  916  25.158   2.818   8.065 -0.2215  0.1165  0.2863
  102UNK    F07  917  25.254   2.656   8.171 -0.3750  0.2767  0.1091
  102UNK    H08  918  25.357   2.839   8.303  1.0891  0.4697 -3.0275
  103UNK    F00  919  24.023   4.606   5.057  0.1507  0.4203  0.0782
  103UNK    C01  920  23.956   4.709   5.110 -0.1567 -0.1359 -0.4420
  103UNK    H02  921  23.852   4.685   5.133  0.2129  0.9729  2.6987
  103UNK    C03  922  24.031   4.810   5.156 -0.2290  0.6676 -0.0719
  103UNK    C04  923  23.977   4.925   5.231  0.3515 -0.1538 -0.1255
  103UNK    F05  924  23.853   4.965   5.193 -0.2019 -0.0467 -0.3572
  103UNK    F06  925  23.981   4.907   5.363  0.0716  0.0246  0.2707
  103UNK    F07  926  24.066   5.025   5.222 -0.1591  0.3866  0.2873
  103UNK    H08  927  24.135   4.803   5.127 -0.4957  2.4339 -1.5621
  104UNK    F00  928  22.647   3.413   8.905 -0.3957  0.0572 -0.1062
  104UNK    C01  929  22.594   3.380   8.788 -0.6287  0.1039  1.1654
  104UNK    H02  930  22.611   3.453   8.708  2.6905 -0.2736  1.4454
  104UNK    C03  931  22.500   3.287   8.788  0.2413  0.1320 -0.1241
  104UNK    C04  932  22.446   3.222   8.669  0.3002 -0.6563  0.6136
  104UNK    F05  933  22.477   3.285   8.554 -0.6066 -0.1754  0.3119
  104UNK    F06  934  22.502   3.102   8.661  0.7123  0.4990  0.4820
  104UNK    F07  935  22.312   3.212   8.674 -0.1077  0.7971  0.1164
  104UNK    H08  936  22.486   3.237   8.882 -1.1281  0.2999 -0.2287
  105UNK    F00  937  23.342   0.669   7.495 -0.1752  0.0861  0.1336
  105UNK    C01  938  23.231   0.629   7.559  0.3436 -0.0202  0.0414
  105UNK    H02  939  23.252   0.624   7.666 -0.1078  1.3879  0.2078
  105UNK    C03  940  23.113   0.657   7.512  0.0297 -0.6485  0.1046
  105UNK    C04  941  23.014   0.734   7.578 -0.1038 -0.8315  0.2181
  105UNK    F05  942  22.999   0.707   7.711  0.2698 -0.2496 -0.0966
  105UNK    F06  943  23.035   0.865   7.561  0.4661  0.6327  0.1553
  105UNK    F07  944  22.888   0.718   7.523  0.1989 -0.2500  0.3520
  105UNK    H08  945  23.074   0.613   7.422  0.5861 -0.9064 -0.0124
  106UNK    F00  946  25.641   4.047   5.755  0.7546  0.0341 -0.1054
  106UNK    C01  947  25.516   4.077   5.802  0.4069  0.0518 -0.3224
  106UNK    H02  948  25.515   4.177   5.845  1.3720 -0.5932  1.2207
  106UNK    C03  949  25.417   3.993   5.773  0.0868 -0.8236 -0.2504
  106UNK    C04  950  25.270   4.029   5.798 -0.2246 -0.1120 -0.3202
  106UNK    F05  951  25.190   3.924   5.786 -0.2977 -0.6512  0.4944
  106UNK    F06  952  25.259   4.096   5.917  0.2682  0.2387 -0.2411
  106UNK    F07  953  25.225   4.110   5.699  0.5453 -0.2291 -0.3174
  106UNK    H08  954  25.433   3.887   5.762  2.2010 -0.7255  1.6491
  107UNK    F00  955  22.735   5.016   6.678  0.4936  0.1430 -0.2292
  107UNK    C01  956  22.736   4.900   6.739 -0.5367  0.3563 -0.5069
  107UNK    H02  957  22.642   4.853   6.712  0.0015 -1.2132  0.2798
  107UNK    C03  958  22.848   4.833   6.752  0.2100  0.0903  0.5813
  107UNK    C04  959  22.842   4.687   6.778 -0.1148 -0.2202 -0.1566
  107UNK    F05  960  22.747   4.650   6.862  0.5723  0.6735  0.0113
  107UNK    F06  961  22.836   4.623   6.662  0.0603 -0.2737 -0.0007
  107UNK    F07  962  22.965   4.652   6.832  0.2101  0.2254  0.4332
  107UNK    H08  963  22.948   4.872   6.738 -0.1326  1.1590  1.0242
  108UNK    F00  964  24.412   3.570   5.023  0.4607 -0.0514  0.1669
  108UNK    C01  965  24.299   3.633   4.997 -0.0266 -0.4893 -0.4022
  108UNK    H02  966  24.222   3.561   4.972 -1.3274  0.6360  0.3308
  108UNK    C03  967  24.277   3.759   5.025 -0.0347 -0.0047  0.2904
  108UNK    C04  968  24.275   3.820   5.157  0.3807 -0.4997 -0.0744
  108UNK    F05  969  24.386   3.789   5.223  0.2515  0.2117 -0.4881
  108UNK    F06  970  24.268   3.958   5.158  0.2107  0.2560 -0.0511
  108UNK    F07  971  24.179   3.769   5.239  0.2671 -0.1686  0.1762
  108UNK    H08  972  24.240   3.829   4.951 -0.8470  2.4358  2.8740
  109UNK    F00  973  22.732   0.259   6.490  0.5033  0.0237  0.5510
  109UNK    C01  974  22.861   0.234   6.468 -0.4572  0.6189  0.1544
  109UNK    H02  975  22.928   0.313   6.500  2.2032 -2.6625  3.0160
  109UNK    C03  976  22.909   0.125   6.409  0.3023  0.3795  0.1272
  109UNK    C04  977  23.039   0.064   6.440  0.3107 -0.0924 -0.5817
  109UNK    F05  978  23.069  -0.025   6.342  0.0455 -0.4975  0.0227
  109UNK    F06  979  23.133   0.164   6.455  0.3334  0.3803 -0.8618
  109UNK    F07  980  23.019  -0.011   6.552  0.5851 -0.6635 -0.1034
  109UNK    H08  981  22.836   0.059   6.363  0.5944 -0.4617  0.8649
  110UNK    F00  982  23.707   2.075   5.485  0.4741 -0.2667 -0.4698
  110UNK    C01  983  23.824   2.143   5.494  0.6172  0.0772  0.9072
  110UNK    H02  984  23.865   2.137   5.393 -2.0111 -2.1224 -0.1018
  110UNK    C03  985  23.901   2.128   5.604 -0.0064 -0.4449  0.2500
  110UNK    C04  986  23.857   2.156   5.739  0.4680 -0.6323 -0.5914
  110UNK    F05  987  23.811   2.043   5.794  0.3139 -0.0619  0.0055
  110UNK    F06  988  23.963   2.199   5.818 -0.1150  0.6515  0.4821
  110UNK    F07  989  23.752   2.235   5.748 -0.0004  0.1688 -0.5495
  110UNK    H08  990  24.007   2.109   5.610  0.3358  1.7469  1.5227
  111UNK    F00  991  24.977   2.133   6.734  0.1471  0.5320 -0.0136
  111UNK    C01  992  25.045   2.245   6.707 -0.6526  0.3815 -0.4228
  111UNK    H02  993  25.146   2.218   6.677 -0.7643 -0.2061 -0.2789
  111UNK    C03  994  24.973   2.346   6.652  0.1601  0.4525  0.2912
  111UNK    C04  995  24.904   2.463   6.713 -0.0436  0.5912  0.5940
  111UNK    F05  996  24.977   2.575   6.704  0.3146 -0.2200 -0.7870
  111UNK    F06  997  24.780   2.466   6.653  0.8049 -0.1213 -0.2272
  111UNK    F07  998  24.888   2.438   6.845 -0.5836  0.4800  0.5655
  111UNK    H08  999  24.959   2.348   6.545 -0.2700 -0.1369  0.3358
  112UNK    F00 1000  23.921   3.671   6.599  0.1666 -0.6668 -0.1122
  112UNK    C01 1001  24.010   3.764   6.621  0.1727 -0.2752  0.2564
  112UNK    H02 1002  24.070   3.723   6.702 -2.2662 -4.3911  0.1662
  112UNK    C03 1003  24.010   3.877   6.544  0.4368  0.2363 -0.5856
  112UNK    C04 1004  24.127   3.970   6.546  0.6475  0.2620  0.3298
  112UNK    F05 1005  24.100   4.089   6.481  0.1437  0.3129 -0.1666
  112UNK    F06 1006  24.145   3.987   6.684  0.4512  0.1116  0.5585
  112UNK    F07 1007  24.239   3.924   6.486  0.1106 -0.0387 -0.1643
  112UNK    H08 1008  23.923   3.937   6.520  1.2708  1.9020  0.4973
  113UNK    F00 1009  23.634   5.030   7.144 -0.0583 -0.3735 -0.2910
  113UNK    C01 1010  23.656   5.085   7.026 -0.1893  0.5136  0.3422
  113UNK    H02 1011  23.755   5.055   6.991  1.0682  1.2399  3.0760
  113UNK    C03 1012  23.552   5.121   6.951 -0.4760  0.2974 -0.0119
  113UNK    C04 1013  23.553   5.164   6.809 -0.0329  0.7938  0.0688
  113UNK    F05 1014  23.498   5.287   6.806  0.1784 -0.6725 -0.4812
  113UNK    F06 1015  23.674   5.164   6.751  0.4819  0.3998 -0.3431
  113UNK    F07 1016  23.465   5.093   6.728 -0.4129 -0.1362  0.1067
  113UNK    H08 1017  23.460   5.073   6.983  0.3033 -1.3411 -0.1694
  114UNK    F00 1018  23.218   0.306   5.947 -0.0046  0.1363  0.3370
  114UNK    C01 1019  23.232   0.390   5.840  0.3919  0.3855  0.5513
  114UNK    H02 1020  23.276   0.486   5.867  0.2942  0.0171  2.0457
  114UNK    C03 1021  23.228   0.333   5.725  0.6303  0.1964 -0.1152
  114UNK    C04 1022  23.307   0.380   5.612 -0.5563 -0.3309 -0.0909
  114UNK    F05 1023  23.435   0.346   5.638 -0.5838 -0.0987  0.4670
  114UNK    F06 1024  23.265   0.326   5.492 -0.2943 -0.3770  0.3834
  114UNK    F07 1025  23.308   0.517   5.597  0.4281  0.1178  0.2442
  114UNK    H08 1026  23.212   0.226   5.722 -0.6161  0.4113 -1.4651
  115UNK    F00 1027  25.305   1.449   5.439  0.0303  0.3274  0.1110
  115UNK    C01 1028  25.343   1.476   5.314 -0.7970  0.1892  0.0195
  115UNK    H02 1029  25.361   1.582   5.299 -0.5648 -0.0397 -1.4414
  115UNK    C03 1030  25.286   1.403   5.222 -0.0748 -0.6328 -0.6049
  115UNK    C04 1031  25.149   1.425   5.168 -0.3075  0.0456  0.0234
  115UNK    F05 1032  25.061   1.452   5.271  0.1383  0.0777  0.5464
  115UNK    F06 1033  25.157   1.527   5.078  0.6434  0.8933 -0.0918
  115UNK    F07 1034  25.119   1.307   5.107  0.0893 -0.9786 -0.1473
  115UNK    H08 1035  25.344   1.329   5.169 -0.6297 -0.7914 -0.9977
  116UNK    F00 1036  24.654   4.084   8.019 -0.1200 -0.1419  0.2508
  116UNK    C01 1037  24.707   4.202   7.997  0.3683 -0.4047 -0.4921
  116UNK    H02 1038  24.803   4.205   8.050 -0.6530 -0.4954  1.4169
  116UNK    C03 1039  24.657   4.294   7.919  0.7345  0.2129  0.1550
  116UNK    C04 1040  24.724   4.380   7.822  0.3409 -0.7399  0.2305
  116UNK    F05 1041  24.762   4.318   7.703 -0.6082  0.3766 -0.1405
  116UNK    F06 1042  24.647   4.481   7.777 -0.3614  0.0130  0.1425
  116UNK    F07 1043  24.835   4.437   7.871 -0.1440 -0.2865  0.1666
  116UNK    H08 1044  24.551   4.314   7.926  0.2956 -1.5722 -0.9836
  117UNK    F00 1045  23.462   2.391   8.162  0.0150  0.4245  0.0931
  117UNK    C01 1046  23.542   2.500   8.156 -0.0380 -0.1331 -0.0838
  117UNK    H02 1047  23.625   2.494   8.226 -0.7121 -1.8835  0.5750
  117UNK    C03 1048  23.498   2.603   8.082  0.0870 -0.3831 -0.3519
  117UNK    C04 1049  23.594   2.676   7.997  0.3690  0.1576 -0.1970
  117UNK    F05 1050  23.686   2.745   8.069  0.0855 -0.0483  0.3973
  117UNK    F06 1051  23.657   2.585   7.923 -0.1010  0.3858  0.1025
  117UNK    F07 1052  23.531   2.759   7.917  0.2722 -0.1163 -0.2987
  117UNK    H08 1053  23.418   2.668   8.114 -1.0944 -2.5720  1.2012
  118UNK    F00 1054  25.364   2.207   8.964 -0.5456 -0.1910  0.1998
  118UNK    C01 1055  25.291   2.306   8.918  0.0817 -0.3219  0.7329
  118UNK    H02 1056  25.279   2.295   8.810  0.8683  1.7861  0.4272
  118UNK    C03 1057  25.251   2.406   8.995  0.5211  0.1887  0.3074
  118UNK    C04 1058  25.340   2.525   9.003 -0.6432  0.4076  0.1789
  118UNK    F05 1059  25.292   2.629   8.935 -0.3913 -0.3165  0.1635
  118UNK    F06 1060  25.358   2.560   9.134  0.0808  0.3620 -0.2294
  118UNK    F07 1061  25.467   2.490   8.957  0.3745  0.3529  0.2447
  118UNK    H08 1062  25.158   2.408   9.050 -0.0022  0.4558 -0.5838
  119UNK    F00 1063  24.359   5.130   8.135  0.2621 -0.5857 -0.0550
  119UNK    C01 1064  24.248   5.161   8.206 -0.7333 -0.1582  1.1286
  119UNK    H02 1065  24.210   5.076   8.262  1.7855 -1.4696  0.9193
  119UNK    C03 1066  24.189   5.273   8.181  0.8857  0.5443  0.7914
  119UNK    C04 1067  24.074   5.333   8.255 -0.2435 -0.3636 -0.2321
  119UNK    F05 1068  24.012   5.404   8.158 -0.2259 -0.5215  0.5627
  119UNK    F06 1069  23.992   5.235   8.302 -0.5841 -0.1590 -0.0549
  119UNK    F07 1070  24.126   5.402   8.356 -0.1938  0.1570  0.0939
  119UNK    H08 1071  24.247   5.347   8.126  1.1177 -0.9936 -1.1060
  120UNK    F00 1072  23.003   4.414   6.094  0.2592  0.4966  0.1047
  120UNK    C01 1073  23.084   4.306   6.105  0.0259 -0.4757 -0.2263
  120UNK    H02 1074  23.023   4.223   6.140  0.4344 -0.6718  0.0200
  120UNK    C03 1075  23.210   4.311   6.066  0.5388 -0.4154  0.0330
  120UNK    C04 1076  23.310   4.196   6.074  0.1265  0.3805  0.6038
  120UNK    F05 1077  23.430   4.249   6.049  0.0495 -0.0622  0.7213
  120UNK    F06 1078  23.311   4.135   6.188 -0.9104  0.1602 -0.0101
  120UNK    F07 1079  23.276   4.097   5.984 -0.0672  0.0594 -0.0658
  120UNK    H08 1080  23.220   4.373   5.978  0.3841 -1.6302 -0.8556
  121UNK    F00 1081  23.182   4.568   7.199  0.2273 -0.0741 -0.4881
  121UNK    C01 1082  23.088   4.658   7.229  0.8734  0.1739 -0.1652
  121UNK    H02 1083  22.997   4.606   7.256  1.0333  0.6866  1.4416
  121UNK    C03 1084  23.131   4.776   7.265 -0.2801 -0.1809  0.3741
  121UNK    C04 1085  23.044   4.867   7.334 -0.1093  0.2017  0.3399
  121UNK    F05 1086  23.099   4.990   7.351  0.8626  0.3765  0.0049
  121UNK    F06 1087  22.930   4.888   7.267  0.0153  0.3478 -0.3203
  121UNK    F07 1088  23.003   4.816   7.453 -0.1802 -0.1527  0.0977
  121UNK    H08 1089  23.236   4.797   7.278 -0.7007  1.0062  2.0291
  122UNK    F00 1090  24.709   4.771   6.146  0.1001  0.0361  0.5821
  122UNK    C01 1091  24.808   4.839   6.092 -0.0777  0.2878  0.7389
  122UNK    H02 1092  24.766   4.933   6.057  2.5024  0.7782 -1.2038
  122UNK    C03 1093  24.926   4.845   6.160  0.9756 -0.0622  0.6254
  122UNK    C04 1094  24.996   4.972   6.184 -0.0102 -0.0864  0.1964
  122UNK    F05 1095  24.983   5.069   6.095 -0.3963 -0.5603  0.0546
  122UNK    F06 1096  24.974   5.019   6.309  0.1927 -0.2097  0.1068
  122UNK    F07 1097  25.128   4.940   6.177  0.2270  0.3373 -0.4452
  122UNK    H08 1098  24.980   4.753   6.172 -0.3447 -0.9899 -0.3107
  123UNK    F00 1099  22.632   4.321   6.686  0.7793 -0.1117  0.2242
  123UNK    C01 1100  22.523   4.400   6.704 -0.0450 -0.5664 -0.0689
  123UNK    H02 1101  22.519   4.462   6.794 -0.6695 -1.6168  0.6531
  123UNK    C03 1102  22.435   4.420   6.599 -0.7011  0.0782 -0.2124
  123UNK    C04 1103  22.355   4.545   6.567 -0.5191 -0.2530  0.0339
  123UNK    F05 1104  22.318   4.591   6.686 -0.0610  0.1943 -0.4615
  123UNK    F06 1105  22.429   4.637   6.512  0.4566  0.0066  0.1481
  123UNK    F07 1106  22.255   4.528   6.482  0.3306  0.5538  0.2095
  123UNK    H08 1107  22.418   4.342   6.527 -1.6372 -1.0965  1.2634
  124UNK    F00 1108  22.252   3.068   9.481 -0.0048  0.5214 -0.2358
  124UNK    C01 1109  22.234   2.958   9.412  0.1680  0.2830 -1.0845
  124UNK    H02 1110  22.319   2.928   9.350 -1.5886 -1.1098 -2.9047
  124UNK    C03 1111  22.109   2.930   9.375 -0.2366  0.1172 -0.1314
  124UNK    C04 1112  22.065   2.796   9.332 -0.1738 -0.6371  0.2984
  124UNK    F05 1113  21.950   2.784   9.268 -0.3167  0.4126  0.2220
  124UNK    F06 1114  22.159   2.737   9.260  0.3233  1.0343 -0.0508
  124UNK    F07 1115  22.064   2.725   9.446 -0.1737 -0.2738  0.1898
  124UNK    H08 1116  22.024   2.978   9.421  0.2266  0.6226  0.1892
  125UNK    F00 1117  23.795   4.302   6.769 -0.1891 -0.4279 -0.2381
  125UNK    C01 1118  23.905   4.320   6.834  0.0956  0.2273 -0.7209
  125UNK    H02 1119  23.993   4.281   6.784 -0.0696 -1.5533  0.3458
  125UNK    C03 1120  23.909   4.421   6.923 -0.3360 -0.2509  0.3679
  125UNK    C04 1121  23.873   4.560   6.875 -0.7697  0.4442 -0.4539
  125UNK    F05 1122  23.916   4.581   6.751  0.1103  0.6954 -0.2380
  125UNK    F06 1123  23.741   4.586   6.865 -0.1559 -0.5460  0.1287
  125UNK    F07 1124  23.930   4.655   6.957  0.0777  0.3409  0.4095
  125UNK    H08 1125  23.932   4.406   7.028  0.7143  0.1260  0.1999
  126UNK    F00 1126  22.318   0.650   7.534  0.0287  0.0509  0.5920
  126UNK    C01 1127  22.274   0.771   7.486  0.0162 -0.2391 -0.0469
  126UNK    H02 1128  22.184   0.795   7.543  1.3387  4.3137  0.2964
  126UNK    C03 1129  22.285   0.804   7.356  0.2240  0.4588 -0.2501
  126UNK    C04 1130  22.265   0.942   7.306 -0.1252  0.2068  0.0590
  126UNK    F05 1131  22.153   1.007   7.352  0.2144  0.7649  0.4375
  126UNK    F06 1132  22.361   1.037   7.331 -0.6574  0.1965  0.1011
  126UNK    F07 1133  22.248   0.945   7.174  0.2512  0.3803 -0.2164
  126UNK    H08 1134  22.328   0.736   7.284  0.1500 -0.7586  0.8337
  127UNK    F00 1135  24.569   2.911   5.838 -0.5470 -0.2287  0.4098
  127UNK    C01 1136  24.531   2.844   5.732  0.1036  0.4922 -0.2111
  127UNK    H02 1137  24.606   2.766   5.714  0.4916  1.2281 -1.8726
  127UNK    C03 1138  24.426   2.872   5.658  0.1289 -0.5797  0.4366
  127UNK    C04 1139  24.385   2.800   5.535 -0.5138 -0.1630  0.7179
  127UNK    F05 1140  24.298   2.882   5.475  0.2698 -0.0715  0.0376
  127UNK    F06 1141  24.486   2.770   5.443 -0.2721 -0.0418 -0.7972
  127UNK    F07 1142  24.325   2.691   5.572  0.3767 -0.5923  0.3579
  127UNK    H08 1143  24.358   2.949   5.692  1.8091  0.6687  1.0979
  128UNK    F00 1144  23.899   1.407   6.285 -0.2628 -0.4784  0.2680
  128UNK    C01 1145  23.891   1.344   6.402 -0.3622 -0.1775  0.1007
  128UNK    H02 1146  23.834   1.252   6.392  1.6896 -1.3996 -0.8718
  128UNK    C03 1147  23.962   1.386   6.506 -0.1917 -0.0961  0.5782
  128UNK    C04 1148  23.948   1.527   6.545 -0.9770  0.5785 -0.0297
  128UNK    F05 1149  23.851   1.558   6.634  0.1710  0.3550 -0.0567
  128UNK    F06 1150  24.065   1.557   6.614 -0.0665 -0.4026 -0.0104
  128UNK    F07 1151  23.942   1.621   6.440 -0.1287  0.1902  0.1169
  128UNK    H08 1152  23.975   1.325   6.595 -2.4472  0.3964  1.2671
  129UNK    F00 1153  23.573   3.337   6.308 -0.2790 -0.3631  0.0463
  129UNK    C01 1154  23.620   3.422   6.217 -0.1510  0.4328  0.0524
  129UNK    H02 1155  23.545   3.495   6.186  0.4509  1.2179  0.4174
  129UNK    C03 1156  23.746   3.408   6.177  0.8731 -0.3530 -0.8135
  129UNK    C04 1157  23.849   3.364   6.271  0.2634  0.5922 -0.1832
  129UNK    F05 1158  23.846   3.231   6.282  0.2450  0.2996  0.2283
  129UNK    F06 1159  23.971   3.389   6.220 -0.3273 -0.2431  0.4822
  129UNK    F07 1160  23.853   3.421   6.391 -0.4951  0.1206  0.8324
  129UNK    H08 1161  23.761   3.368   6.077 -0.5572 -1.1209 -0.7383
  130UNK    F00 1162  22.962   2.782   8.737 -0.1564 -0.3209  0.2007
  130UNK    C01 1163  23.088   2.751   8.746  0.4970  0.0577  0.0406
  130UNK    H02 1164  23.092   2.645   8.771  1.0038 -0.3358 -1.6199
  130UNK    C03 1165  23.182   2.836   8.737  0.5051 -0.1487  0.4512
  130UNK    C04 1166  23.205   2.941   8.838  0.3897  0.1183 -0.2197
  130UNK    F05 1167  23.214   2.900   8.966 -0.2194 -0.0780 -0.0907
  130UNK    F06 1168  23.330   2.984   8.812  0.3005 -0.0036 -0.1421
  130UNK    F07 1169  23.130   3.052   8.844  0.2967 -0.2237  0.3722
  130UNK    H08 1170  23.247   2.841   8.651  0.2862 -0.7048  0.2532
  131UNK    F00 1171  23.918   2.847   7.219 -0.4898 -0.3216  0.0369
  131UNK    C01 1172  24.036   2.797   7.183  0.7586  0.5516 -0.3621
  131UNK    H02 1173  24.022   2.703   7.130 -1.4780  2.0293 -2.4853
  131UNK    C03 1174  24.146   2.823   7.255 -0.5488 -0.0017 -0.2270
  131UNK    C04 1175  24.164   2.938   7.348 -1.0723  0.5287  0.5978
  131UNK    F05 1176  24.107   2.920   7.463  0.0327 -0.0320 -0.4723
  131UNK    F06 1177  24.299   2.961   7.372 -0.0577 -0.3272 -0.1929
  131UNK    F07 1178  24.120   3.050   7.292  0.8544 -0.0060  0.0696
  131UNK    H08 1179  24.243   2.789   7.220 -0.1778 -1.3312  1.9526
  132UNK    F00 1180  23.826   0.463  10.464  0.1280 -0.1315  0.3743
  132UNK    C01 1181  23.783   0.394  10.359  0.3902  1.0329  0.0454
  132UNK    H02 1182  23.682   0.359  10.384  0.7858 -0.4260 -0.3780
  132UNK    C03 1183  23.802   0.439  10.237 -0.7304  0.2184  0.7061
  132UNK    C04 1184  23.755   0.370  10.115  1.0793 -0.1834  0.1317
  132UNK    F05 1185  23.621   0.398  10.089  0.5223 -0.9414 -0.0442
  132UNK    F06 1186  23.834   0.418  10.014 -0.4120  0.0446  0.1113
  132UNK    F07 1187  23.769   0.235  10.133  0.4570 -0.2582  0.4885
  132UNK    H08 1188  23.886   0.501  10.211 -1.2939  0.2683 -1.0219
  133UNK    F00 1189  23.001   2.507   7.746 -0.1968 -0.6681 -0.0387
  133UNK    C01 1190  22.924   2.467   7.849  0.2889 -0.5496 -0.2474
  133UNK    H02 1191  22.946   2.371   7.896 -1.5604  0.1732  2.1925
  133UNK    C03 1192  22.859   2.567   7.913 -0.1911 -0.1254 -0.4011
  133UNK    C04 1193  22.768   2.540   8.024  0.2925 -0.6781  0.7217
  133UNK    F05 1194  22.817   2.505   8.142 -0.3757 -0.9515 -0.0717
  133UNK    F06 1195  22.699   2.650   8.048 -0.0560 -0.0241  0.0324
  133UNK    F07 1196  22.679   2.445   7.999 -0.6648  0.2014 -0.3021
  133UNK    H08 1197  22.866   2.672   7.885  0.6518  0.1935  0.9619
  134UNK    F00 1198  24.350   1.045   7.863  0.7843  0.0594 -0.0722
  134UNK    C01 1199  24.446   1.132   7.882  0.2860  0.9014 -1.2394
  134UNK    H02 1200  24.534   1.090   7.930 -1.5270 -2.6910 -0.9517
  134UNK    C03 1201  24.442   1.257   7.835  0.1552 -0.3322  0.8205
  134UNK    C04 1202  24.460   1.289   7.693  0.5017  0.4408 -0.2146
  134UNK    F05 1203  24.353   1.271   7.614 -0.1516  0.0107  0.6116
  134UNK    F06 1204  24.490   1.417   7.673 -0.3578 -0.2487 -0.5557
  134UNK    F07 1205  24.564   1.225   7.638  0.2619 -0.6944  0.2594
  134UNK    H08 1206  24.427   1.341   7.901 -0.7881  0.4521 -0.3746
  135UNK    F00 1207  23.008   1.107   7.770 -0.0525 -0.0781  0.9523
  135UNK    C01 1208  23.090   1.069   7.870  0.0298  0.4641  0.5117
  135UNK    H02 1209  23.060   1.117   7.963 -1.3863 -1.4581  1.0818
  135UNK    C03 1210  23.209   1.033   7.842  0.0486  0.2750  0.0288
  135UNK    C04 1211  23.266   0.915   7.906 -0.2309  0.0854 -0.3745
  135UNK    F05 1212  23.233   0.890   8.036  0.3735  0.6125  0.2277
  135UNK    F06 1213  23.237   0.806   7.834  0.1419 -0.3316 -0.3980
  135UNK    F07 1214  23.399   0.938   7.907 -0.0774  0.3428 -0.1967
  135UNK    H08 1215  23.261   1.075   7.758  1.5939 -0.8860  0.3857
  136UNK    F00 1216  24.188   1.445   7.848 -0.2457 -0.1121  0.1417
  136UNK    C01 1217  24.111   1.552   7.826 -0.0836 -0.3488 -0.0089
  136UNK    H02 1218  24.155   1.632   7.886 -0.1624  0.2092 -0.6903
  136UNK    C03 1219  24.049   1.564   7.710  0.0155  0.0770 -0.8289
  136UNK    C04 1220  23.905   1.530   7.689  0.5261  0.3751 -0.2799
  136UNK    F05 1221  23.827   1.630   7.725 -0.4960  0.5352 -1.0638
  136UNK    F06 1222  23.878   1.500   7.559  0.0320  0.1272 -0.2586
  136UNK    F07 1223  23.855   1.423   7.748 -0.0265  0.5355  0.2089
  136UNK    H08 1224  24.101   1.545   7.617 -1.8014 -0.4305 -1.7727
  137UNK    F00 1225  24.320   1.702   9.898 -0.1020 -0.0840 -0.3191
  137UNK    C01 1226  24.225   1.800   9.902 -0.3058  0.2086 -0.5530
  137UNK    H02 1227  24.165   1.802   9.993  0.2637 -0.4153 -0.1685
  137UNK    C03 1228  24.189   1.853   9.785 -0.4076  0.2438 -0.1685
  137UNK    C04 1229  24.278   1.898   9.675  0.3033 -0.2716  0.5781
  137UNK    F05 1230  24.321   1.804   9.587 -0.1567  0.4360 -0.2745
  137UNK    F06 1231  24.196   1.981   9.602  0.5889  0.2184 -0.1901
  137UNK    F07 1232  24.382   1.978   9.712 -0.0824  0.1663  0.5771
  137UNK    H08 1233  24.084   1.865   9.762 -0.2766  1.2321 -0.2974
  138UNK    F00 1234  23.900   1.167   8.578 -0.0664 -0.4844  0.0129
  138UNK    C01 1235  23.827   1.060   8.609  0.1057  0.4293  0.5948
  138UNK    H02 1236  23.853   1.012   8.703  0.0255  1.0357  0.9286
  138UNK    C03 1237  23.702   1.057   8.560  0.4147  0.2660  0.6262
  138UNK    C04 1238  23.593   0.978   8.626 -0.2337  0.3993 -0.2067
  138UNK    F05 1239  23.656   0.894   8.713 -0.1848  0.4080  0.2703
  138UNK    F06 1240  23.530   1.064   8.709  0.1750 -0.5625 -0.3002
  138UNK    F07 1241  23.500   0.927   8.543  0.2695  0.1972  0.0549
  138UNK    H08 1242  23.654   1.133   8.500  0.0514  1.8328  2.8184
  139UNK    F00 1243  24.287   5.086   7.413 -0.7707  0.1225 -0.0383
  139UNK    C01 1244  24.185   5.069   7.327  0.1183  0.0486 -0.2952
  139UNK    H02 1245  24.223   5.048   7.227  2.0496  3.5742 -0.3881
  139UNK    C03 1246  24.062   5.110   7.367  0.8214  1.2375  0.2262
  139UNK    C04 1247  23.931   5.097   7.297 -1.1773  0.1019  0.4341
  139UNK    F05 1248  23.949   5.089   7.160  0.7082  0.1925 -0.0006
  139UNK    F06 1249  23.863   4.986   7.335  0.3859  0.2229 -0.1894
  139UNK    F07 1250  23.849   5.209   7.315  0.1395 -0.2600  0.0847
  139UNK    H08 1251  24.050   5.190   7.439  0.1045  2.6491 -1.4292
  140UNK    F00 1252  23.047   2.886   8.263  0.3562  0.4779 -0.3389
  140UNK    C01 1253  23.002   2.759   8.257 -0.4037 -0.1043 -0.3252
  140UNK    H02 1254  22.894   2.756   8.270 -0.4392 -2.9625 -1.1309
  140UNK    C03 1255  23.088   2.661   8.265 -0.4942  0.4089  0.0913
  140UNK    C04 1256  23.152   2.624   8.393 -0.1876  0.1201  0.0596
  140UNK    F05 1257  23.211   2.734   8.441 -0.0472  0.2139 -0.0459
  140UNK    F06 1258  23.048   2.605   8.482  0.7760 -0.0936 -0.0251
  140UNK    F07 1259  23.233   2.520   8.380  0.1628  0.2069  0.1037
  140UNK    H08 1260  23.152   2.633   8.183 -2.0119 -2.9433 -0.0281
  141UNK    F00 1261  23.980   1.418   8.124  0.4343 -0.3195 -0.1519
  141UNK    C01 1262  23.864   1.371   8.086 -0.0869  0.0730  0.2350
  141UNK    H02 1263  23.855   1.393   7.980  0.2686 -2.3617 -0.3330
  141UNK    C03 1264  23.767   1.330   8.168  0.6174  0.5129 -1.0034
  141UNK    C04 1265  23.646   1.278   8.110  0.5864  0.2820 -0.6426
  141UNK    F05 1266  23.584   1.341   8.012 -0.3490 -0.5983  0.0284
  141UNK    F06 1267  23.656   1.148   8.070 -0.3054  0.6919  0.1183
  141UNK    F07 1268  23.557   1.271   8.207 -0.1534 -0.2963  0.2310
  141UNK    H08 1269  23.779   1.313   8.274 -0.6407  0.4271 -0.8678
  142UNK    F00 1270  23.691   1.005   6.542 -0.1524  0.0002  0.0188
  142UNK    C01 1271  23.587   0.941   6.592 -0.0406  0.1964 -0.0145
  142UNK    H02 1272  23.547   0.856   6.537 -0.2802 -0.4430  1.1360
  142UNK    C03 1273  23.508   1.007   6.668  0.5175 -0.3165  0.5076
  142UNK    C04 1274  23.439   0.952   6.784 -0.0568  0.0278 -0.5266
  142UNK    F05 1275  23.518   0.933   6.896  0.1601  0.0050 -0.3240
  142UNK    F06 1276  23.339   1.029   6.826 -0.1143 -0.1236  0.4812
  142UNK    F07 1277  23.385   0.827   6.763 -0.0064 -0.0033  0.2583
  142UNK    H08 1278  23.446   1.077   6.613  1.3375 -0.0175 -0.0508
  143UNK    F00 1279  23.305   3.981   8.910  0.4180  0.6865 -0.2549
  143UNK    C01 1280  23.270   3.922   9.029  0.5919 -0.8878 -0.1293
  143UNK    H02 1281  23.284   3.814   9.024  0.1688 -0.9267 -0.5736
  143UNK    C03 1282  23.240   4.003   9.130  0.4834  0.0631  0.5502
  143UNK    C04 1283  23.223   3.943   9.270 -0.6881 -0.0593  0.1265
  143UNK    F05 1284  23.232   3.807   9.267 -0.1233  0.3361  0.0046
  143UNK    F06 1285  23.320   3.982   9.358 -0.0834  0.2944  0.3420
  143UNK    F07 1286  23.107   3.983   9.320 -0.3796  0.0001 -0.3128
  143UNK    H08 1287  23.152   4.065   9.114  0.0164 -0.5004  0.9206
  144UNK    F00 1288  24.266   4.792   5.393  0.6467 -0.3894  0.1184
  144UNK    C01 1289  24.360   4.853   5.465  0.2482 -0.1275 -0.2389
  144UNK    H02 1290  24.317   4.890   5.557 -1.7530  0.6089 -1.4483
  144UNK    C03 1291  24.486   4.854   5.425 -0.1292 -0.5746 -0.5948
  144UNK    C04 1292  24.549   4.964   5.340  0.4126  0.2169  0.2961
  144UNK    F05 1293  24.650   4.915   5.265  0.1310  0.4453 -0.0038
  144UNK    F06 1294  24.454   5.021   5.263  0.8069 -0.2295  0.1428
  144UNK    F07 1295  24.590   5.075   5.410 -0.1083 -0.2399  0.1088
  144UNK    H08 1296  24.551   4.800   5.493 -1.1024  0.3676  1.1175
  145UNK    F00 1297  22.821   4.721   8.401  0.0469  0.1967  0.3202
  145UNK    C01 1298  22.809   4.589   8.403 -0.1547 -0.6395  0.3233
  145UNK    H02 1299  22.702   4.580   8.388 -0.1169 -0.9276  0.2167
  145UNK    C03 1300  22.910   4.497   8.389  0.8289  0.2436 -0.3907
  145UNK    C04 1301  22.883   4.362   8.349  0.8977  0.3740 -0.2261
  145UNK    F05 1302  22.995   4.284   8.361  0.3423 -0.3701 -0.0377
  145UNK    F06 1303  22.788   4.298   8.426  0.0160 -0.1290  0.1383
  145UNK    F07 1304  22.830   4.356   8.224  0.4511  0.0763  0.0443
  145UNK    H08 1305  23.007   4.527   8.426  0.4400  0.7744  0.2136
  146UNK    F00 1306  23.639   0.045   7.627 -0.3158 -0.1614  0.1428
  146UNK    C01 1307  23.534  -0.037   7.610  0.2077  0.8181 -0.3067
  146UNK    H02 1308  23.540  -0.100   7.521 -3.1458 -1.8848  1.2849
  146UNK    C03 1309  23.453  -0.053   7.716  0.2474 -0.2625  0.0980
  146UNK    C04 1310  23.321  -0.132   7.708 -0.1305 -0.3910 -0.1756
  146UNK    F05 1311  23.230  -0.108   7.805 -0.4169 -0.4994 -0.1199
  146UNK    F06 1312  23.251  -0.105   7.595  0.1895  0.0771  0.2552
  146UNK    F07 1313  23.341  -0.265   7.723  0.2485  0.1857  0.9223
  146UNK    H08 1314  23.477  -0.014   7.814  0.2320  0.5509 -0.2167
  147UNK    F00 1315  24.443   4.417   7.134 -0.2749 -0.2748  0.1205
  147UNK    C01 1316  24.485   4.294   7.152  0.1067 -0.2864  0.0440
  147UNK    H02 1317  24.566   4.296   7.225 -0.3594 -0.2226  0.5610
  147UNK    C03 1318  24.422   4.183   7.120 -0.1907  0.2679 -0.3480
  147UNK    C04 1319  24.284   4.158   7.143 -0.5122 -0.0082  0.0117
  147UNK    F05 1320  24.236   4.206   7.257 -0.2241 -0.3789  0.1910
  147UNK    F06 1321  24.210   4.209   7.039 -0.1629  0.3147  0.3598
  147UNK    F07 1322  24.252   4.028   7.143 -0.5915 -0.5762  0.0377
  147UNK    H08 1323  24.456   4.106   7.053 -1.1498 -1.0550  0.6457
  148UNK    F00 1324  23.810   1.988   7.729  0.2314  0.0620  0.0751
  148UNK    C01 1325  23.713   1.961   7.639 -0.4185  0.8204 -0.0599
  148UNK    H02 1326  23.709   1.854   7.616  1.1499  1.2107 -2.2727
  148UNK    C03 1327  23.675   2.059   7.554  0.1134 -0.0243  0.4632
  148UNK    C04 1328  23.555   2.053   7.465  0.0631 -0.7063  0.0980
  148UNK    F05 1329  23.448   1.997   7.531  0.0492 -0.3887  0.4672
  148UNK    F06 1330  23.520   2.172   7.414  0.0036 -0.0943  0.4512
  148UNK    F07 1331  23.582   1.966   7.359 -0.1725  0.2060 -0.7405
  148UNK    H08 1332  23.703   2.162   7.569 -1.8863  0.5494  0.4590
  149UNK    F00 1333  11.749   0.573   5.330 -0.4119 -0.0600  0.1901
  149UNK    C01 1334  11.713   0.704   5.315 -0.3372  0.6257  0.4089
  149UNK    H02 1335  11.762   0.772   5.384  1.7555  0.2756 -0.7004
  149UNK    C03 1336  11.672   0.745   5.193 -0.7833  0.1127  0.1997
  149UNK    C04 1337  11.675   0.889   5.158 -0.2711 -0.1990  0.4184
  149UNK    F05 1338  11.614   0.899   5.035  0.1752  0.1348 -0.6319
  149UNK    F06 1339  11.594   0.958   5.243 -0.4972 -0.5250  0.0106
  149UNK    F07 1340  11.800   0.934   5.146 -0.5238  0.3381  0.0296
  149UNK    H08 1341  11.595   0.698   5.134 -0.9771  1.0007 -0.2564
  150UNK    F00 1342  23.274   3.309   7.402  0.0584  0.4075  0.2761
  150UNK    C01 1343  23.148   3.270   7.384 -0.2774  0.4092 -0.2583
  150UNK    H02 1344  23.110   3.239   7.481  1.6155 -0.6778  0.1434
  150UNK    C03 1345  23.065   3.334   7.299 -0.3081  0.1609  0.5247
  150UNK    C04 1346  22.920   3.354   7.322 -0.2411  0.3324 -0.2442
  150UNK    F05 1347  22.861   3.387   7.204  0.1976  0.1937 -0.3762
  150UNK    F06 1348  22.862   3.242   7.361 -0.3036  0.4338  0.1609
  150UNK    F07 1349  22.882   3.445   7.408  0.3860 -0.8219  0.4150
  150UNK    H08 1350  23.116   3.409   7.240  1.2253 -0.1552  1.4269
  151UNK    F00 1351  24.759   3.823   4.940  0.1099  0.3720  0.4818
  151UNK    C01 1352  24.654   3.893   4.983 -0.1069  0.4329 -0.3335
  151UNK    H02 1353  24.586   3.822   5.029  0.2489  0.3520  0.0766
  151UNK    C03 1354  24.630   3.996   4.906 -1.2321 -0.2198  0.1919
  151UNK    C04 1355  24.515   4.012   4.814  0.6482  0.2963 -0.5110
  151UNK    F05 1356  24.468   3.889   4.771 -0.4368  0.8509 -0.1203
  151UNK    F06 1357  24.410   4.075   4.872 -0.3287  0.1590 -0.2081
  151UNK    F07 1358  24.551   4.087   4.709  0.0095  0.0075  0.0325
  151UNK    H08 1359  24.716   4.046   4.864 -0.6177 -0.2069  1.4469
  152UNK    F00 1360  22.977   3.351   6.427 -0.2666 -0.2369 -0.3042
  152UNK    C01 1361  22.876   3.440   6.402 -0.2908 -0.1474  0.0482
  152UNK    H02 1362  22.788   3.401   6.453  0.2638  0.2352  1.3296
  152UNK    C03 1363  22.881   3.491   6.281  0.5602  0.5765 -0.1910
  152UNK    C04 1364  22.781   3.592   6.239 -0.0771  0.1147  0.1993
  152UNK    F05 1365  22.658   3.578   6.305 -0.1343 -0.0023 -0.0111
  152UNK    F06 1366  22.843   3.707   6.270 -0.0168  0.3250 -0.6264
  152UNK    F07 1367  22.766   3.600   6.105  0.5308 -0.2586  0.3606
  152UNK    H08 1368  22.970   3.490   6.221  1.4312 -1.3117  1.0815
  153UNK    F00 1369  23.083   5.057   9.011  0.1654 -0.2217  0.2085
  153UNK    C01 1370  23.128   5.183   9.025 -0.0944 -0.7495  0.4375
  153UNK    H02 1371  23.231   5.179   9.061  0.0504  1.7370  0.4161
  153UNK    C03 1372  23.038   5.276   9.058 -0.1127 -0.0593  0.1639
  153UNK    C04 1373  23.011   5.299   9.201 -0.2703  0.0191  0.2107
  153UNK    F05 1374  23.082   5.402   9.252  0.1679  0.1953 -0.3134
  153UNK    F06 1375  22.880   5.329   9.231 -0.2008  0.3276 -0.0541
  153UNK    F07 1376  23.056   5.188   9.271  0.2805 -0.6200  0.2386
  153UNK    H08 1377  22.945   5.286   9.003  1.3205  1.0724 -2.1625
  154UNK    F00 1378  24.441   2.407   6.502 -0.0377 -0.2387  0.0430
  154UNK    C01 1379  24.417   2.280   6.471  0.1785  0.2758  0.0432
  154UNK    H02 1380  24.504   2.219   6.494  1.3257  1.8226 -0.0717
  154UNK    C03 1381  24.301   2.240   6.415 -0.7284  0.1453  0.1141
  154UNK    C04 1382  24.173   2.290   6.451 -0.2418  0.1346  0.8209
  154UNK    F05 1383  24.074   2.216   6.402 -0.2608  0.6087 -0.5573
  154UNK    F06 1384  24.169   2.298   6.585 -0.6045 -0.1012 -0.0620
  154UNK    F07 1385  24.152   2.416   6.404 -1.0330 -0.2246  0.0044
  154UNK    H08 1386  24.307   2.169   6.334 -1.4275 -0.7308  0.8164
  155UNK    F00 1387  23.403   1.884   8.544  0.1274  0.3938 -0.5951
  155UNK    C01 1388  23.367   1.970   8.643  0.3167  0.1631 -0.3063
  155UNK    H02 1389  23.368   1.932   8.745 -2.0340  0.0083 -0.2940
  155UNK    C03 1390  23.363   2.092   8.599 -0.4061 -0.1146  1.0393
  155UNK    C04 1391  23.367   2.210   8.686  0.1354  0.1786 -0.3427
  155UNK    F05 1392  23.484   2.260   8.721  0.4506  0.3182 -0.5052
  155UNK    F06 1393  23.292   2.313   8.631 -0.3152 -0.1309 -0.6351
  155UNK    F07 1394  23.294   2.178   8.794  0.3636 -0.3135  0.1962
  155UNK    H08 1395  23.379   2.109   8.494 -0.6242 -0.4915  0.9438
  156UNK    F00 1396  24.199   0.247   6.214 -0.2837  0.2778 -0.4304
  156UNK    C01 1397  24.151   0.136   6.268  0.9052 -0.1278  0.4001
  156UNK    H02 1398  24.227   0.059   6.253 -0.3621 -1.0310 -1.5227
  156UNK    C03 1399  24.023   0.115   6.261 -0.4948 -0.0670  0.0368
  156UNK    C04 1400  23.940   0.022   6.334  0.0254 -0.2087 -0.3113
  156UNK    F05 1401  23.864   0.078   6.434 -0.2227  0.1635 -0.1306
  156UNK    F06 1402  23.843  -0.047   6.262 -0.1024  0.1885  0.6642
  156UNK    F07 1403  24.019  -0.064   6.404  0.0260  0.2122  0.0146
  156UNK    H08 1404  23.968   0.191   6.207  1.4523  0.1920 -1.6192
  157UNK    F00 1405  22.647   0.848   5.567 -0.0632  0.1359 -0.1544
  157UNK    C01 1406  22.529   0.871   5.623 -0.1026 -0.4158  0.3682
  157UNK    H02 1407  22.454   0.804   5.581 -0.3405  1.1838 -1.8501
  157UNK    C03 1408  22.507   0.986   5.689  0.0739  0.0560  0.3468
  157UNK    C04 1409  22.420   1.089   5.637  0.0182 -0.8978  0.1706
  157UNK    F05 1410  22.431   1.096   5.502 -0.2962 -0.5557  0.3003
  157UNK    F06 1411  22.294   1.050   5.659  0.1373  0.9322 -0.7261
  157UNK    F07 1412  22.446   1.202   5.704 -0.1056  0.6507 -0.1265
  157UNK    H08 1413  22.593   1.027   5.740  1.4226 -2.3431  0.0763
  158UNK    F00 1414  22.034   3.584   7.939 -0.2137 -0.3533 -0.0303
  158UNK    C01 1415  22.156   3.577   7.876 -0.0808 -0.2365 -0.4261
  158UNK    H02 1416  22.147   3.585   7.768  0.4961  2.9540 -0.2718
  158UNK    C03 1417  22.255   3.514   7.943 -0.2327 -0.2038 -0.7723
  158UNK    C04 1418  22.392   3.569   7.954  0.2771  0.2607 -0.5182
  158UNK    F05 1419  22.439   3.619   7.836  0.0232  0.5325  0.2870
  158UNK    F06 1420  22.388   3.677   8.043 -0.4235  0.0427 -0.3356
  158UNK    F07 1421  22.497   3.491   8.009  0.4477 -0.1160  0.1651
  158UNK    H08 1422  22.232   3.456   8.031  2.6487 -1.0277 -0.5053
  159UNK    F00 1423  24.199   2.393   5.927 -0.4798  0.2417  0.1291
  159UNK    C01 1424  24.132   2.494   5.982  0.0500  1.0662  0.4280
  159UNK    H02 1425  24.053   2.525   5.914  0.0543  0.2420  0.0343
  159UNK    C03 1426  24.182   2.577   6.067  0.4417  0.1384  0.7644
  159UNK    C04 1427  24.250   2.694   6.020  0.7034  0.0806  0.0345
  159UNK    F05 1428  24.158   2.791   6.001  0.0466 -0.1897 -0.0186
  159UNK    F06 1429  24.339   2.732   6.117 -0.3475 -0.5998 -0.2755
  159UNK    F07 1430  24.328   2.674   5.906  0.3171 -0.4514  0.5557
  159UNK    H08 1431  24.215   2.535   6.161  2.3236 -1.5227 -0.5972
  160UNK    F00 1432  23.269   3.412   6.440 -0.6749  0.2097 -0.3646
  160UNK    C01 1433  23.227   3.407   6.567  0.1806 -0.3256  0.0907
  160UNK    H02 1434  23.158   3.489   6.586  0.4318  0.3879 -1.9323
  160UNK    C03 1435  23.244   3.298   6.640  0.5925 -0.1660 -0.2038
  160UNK    C04 1436  23.353   3.280   6.722  0.0247 -1.0326 -0.4679
  160UNK    F05 1437  23.343   3.355   6.829  0.0884  0.0567 -0.1501
  160UNK    F06 1438  23.354   3.152   6.755 -0.4186  0.3120 -0.0544
  160UNK    F07 1439  23.467   3.322   6.657 -0.0487  0.3436  0.0206
  160UNK    H08 1440  23.164   3.236   6.677  1.6607 -0.7355  1.2043
  161UNK    F00 1441  23.122   1.621   7.798  0.4480  0.1604 -0.0288
  161UNK    C01 1442  23.242   1.561   7.794  0.9192 -0.1340 -0.0469
  161UNK    H02 1443  23.231   1.492   7.710 -0.5142  0.9040 -0.7280
  161UNK    C03 1444  23.345   1.637   7.824  0.2679  0.7575 -0.2329
  161UNK    C04 1445  23.476   1.625   7.761 -0.7140 -0.8715  0.1912
  161UNK    F05 1446  23.570   1.697   7.822 -0.1227  0.1984 -0.0178
  161UNK    F06 1447  23.532   1.503   7.762 -0.1734 -0.1610 -0.1619
  161UNK    F07 1448  23.475   1.677   7.633  0.1690 -0.0839 -0.2565
  161UNK    H08 1449  23.324   1.734   7.867 -1.9052 -1.1993  3.4275
  162UNK    F00 1450  22.383   1.335   7.698  0.6158 -0.5048  0.4429
  162UNK    C01 1451  22.473   1.431   7.678 -0.7409  1.2204  0.4371
  162UNK    H02 1452  22.427   1.521   7.720 -2.8967 -1.2919  3.7169
  162UNK    C03 1453  22.598   1.386   7.675 -0.0768  0.2087  0.2449
  162UNK    C04 1454  22.710   1.439   7.750  0.6741 -0.8240 -0.0086
  162UNK    F05 1455  22.688   1.422   7.885  0.2324 -0.6319  0.6498
  162UNK    F06 1456  22.828   1.383   7.725  0.1184  1.1010  0.4560
  162UNK    F07 1457  22.737   1.568   7.727  0.7952 -0.3576 -0.0909
  162UNK    H08 1458  22.625   1.307   7.607  1.1869 -0.1563  1.1503
  163UNK    F00 1459  24.918   0.378   8.198  0.2380  0.3567  0.1966
  163UNK    C01 1460  25.017   0.446   8.259 -0.1979  0.1024  0.5767
  163UNK    H02 1461  24.992   0.455   8.365 -2.2745 -1.0782  0.2270
  163UNK    C03 1462  25.138   0.441   8.205  0.3242  0.1983  0.7796
  163UNK    C04 1463  25.232   0.545   8.221 -0.5433 -0.1501  0.4908
  163UNK    F05 1464  25.348   0.524   8.160 -0.0632  0.6051 -0.1314
  163UNK    F06 1465  25.179   0.663   8.172 -0.0609 -0.6046  0.0555
  163UNK    F07 1466  25.261   0.573   8.350  0.1271 -0.1597  0.2603
  163UNK    H08 1467  25.175   0.349   8.163  0.0706  0.3123  0.2992
  164UNK    F00 1468  23.634   0.444   8.773 -0.3253 -0.2893 -0.2945
  164UNK    C01 1469  23.716   0.484   8.874  0.5918  0.3727 -0.0809
  164UNK    H02 1470  23.747   0.406   8.943  2.6771 -0.1428 -1.5470
  164UNK    C03 1471  23.733   0.618   8.881  0.7701 -0.7551 -0.3159
  164UNK    C04 1472  23.837   0.675   8.970  0.8157  0.4821 -0.0510
  164UNK    F05 1473  23.962   0.670   8.910  0.1879  0.2231  0.4028
  164UNK    F06 1474  23.817   0.804   8.994 -0.1543  0.0027 -0.4042
  164UNK    F07 1475  23.840   0.615   9.098  0.1811  0.0402 -0.0071
  164UNK    H08 1476  23.722   0.679   8.792 -2.9252 -1.7108 -0.6062
  165UNK    F00 1477  23.632   4.915   7.551  0.0406  0.2356 -0.2338
  165UNK    C01 1478  23.599   4.801   7.493 -0.0580  0.1958 -0.1147
  165UNK    H02 1479  23.530   4.746   7.557  0.9059  1.7467  2.3112
  165UNK    C03 1480  23.609   4.788   7.359 -0.2265 -0.0464  0.0706
  165UNK    C04 1481  23.614   4.655   7.291 -0.4646 -0.0771 -0.0616
  165UNK    F05 1482  23.669   4.560   7.367 -0.6096  0.3149 -0.5898
  165UNK    F06 1483  23.495   4.605   7.245 -0.5085  0.1625 -0.2627
  165UNK    F07 1484  23.703   4.665   7.189 -0.2058 -0.0044  0.5791
  165UNK    H08 1485  23.679   4.858   7.317  1.8161 -1.2633  1.3675
  166UNK    F00 1486  24.645   0.199   7.177 -0.1802  0.0258 -0.0290
  166UNK    C01 1487  24.762   0.147   7.140  0.4565 -0.1593 -0.2180
  166UNK    H02 1488  24.841   0.194   7.199 -0.4658 -0.0984  0.9822
  166UNK    C03 1489  24.766   0.046   7.055 -0.3155  0.2801 -0.6884
  166UNK    C04 1490  24.868  -0.063   7.052 -0.5056  0.2752  0.7475
  166UNK    F05 1491  24.993  -0.018   7.094 -0.1278  0.4005 -0.8337
  166UNK    F06 1492  24.827  -0.163   7.132 -0.0142 -0.2694  0.4638
  166UNK    F07 1493  24.871  -0.110   6.925  0.6356  0.2289 -0.4764
  166UNK    H08 1494  24.673   0.017   7.010 -0.7910 -1.0948  1.1398
  167UNK    F00 1495  23.606   0.337   5.356  0.0584  0.3186  0.4234
  167UNK    C01 1496  23.659   0.461   5.358  0.6375 -0.1918  0.7144
  167UNK    H02 1497  23.677   0.506   5.260  3.1475  0.5805  1.4950
  167UNK    C03 1498  23.679   0.511   5.480 -0.2476  0.8641  0.9086
  167UNK    C04 1499  23.806   0.494   5.544  0.2235 -0.6220  0.2372
  167UNK    F05 1500  23.793   0.500   5.678 -0.2285 -0.2546  0.2026
  167UNK    F06 1501  23.860   0.373   5.515 -0.1461 -0.4853  0.0812
  167UNK    F07 1502  23.897   0.593   5.514  0.4187 -0.1806  0.1734
  167UNK    H08 1503  23.596   0.540   5.543 -0.4145  1.6370  0.3346
  168UNK    F00 1504  22.979   2.647   6.236  0.0566  0.3825 -0.2849
  168UNK    C01 1505  22.856   2.625   6.281 -0.2394 -0.2076 -0.1919
  168UNK    H02 1506  22.860   2.563   6.370  0.2962  0.0502 -0.0343
  168UNK    C03 1507  22.744   2.659   6.209  0.2998 -1.0604 -0.1076
  168UNK    C04 1508  22.603   2.619   6.229 -0.2906  0.3021 -0.0244
  168UNK    F05 1509  22.518   2.684   6.145  0.2246 -0.0064 -0.2494
  168UNK    F06 1510  22.585   2.487   6.210 -0.4284 -0.4415 -0.5356
  168UNK    F07 1511  22.590   2.661   6.357  0.3434 -0.3192  0.1970
  168UNK    H08 1512  22.755   2.720   6.121 -1.4268 -1.0161 -0.3019
  169UNK    F00 1513  23.799   0.338   9.738 -0.2431 -0.3371 -0.1587
  169UNK    C01 1514  23.728   0.446   9.727 -0.3714  0.2430  0.1192
  169UNK    H02 1515  23.723   0.488   9.828 -3.3821  1.2853 -0.4202
  169UNK    C03 1516  23.624   0.449   9.646  0.2358 -0.1734  0.1671
  169UNK    C04 1517  23.518   0.344   9.659  0.3024  0.5560  0.3592
  169UNK    F05 1518  23.571   0.223   9.668  0.4097 -0.6442  0.7522
  169UNK    F06 1519  23.439   0.370   9.768 -0.7120 -0.3504  0.1624
  169UNK    F07 1520  23.436   0.349   9.553 -0.1971 -0.4825 -0.3112
  169UNK    H08 1521  23.578   0.541   9.613 -0.0155 -0.0966  0.7188
  170UNK    F00 1522  22.532   3.435   7.192  0.3470  0.2548  0.1816
  170UNK    C01 1523  22.455   3.490   7.292 -0.5462 -0.7780  0.7711
  170UNK    H02 1524  22.514   3.494   7.384  1.7018  0.8751 -0.7124
  170UNK    C03 1525  22.321   3.490   7.293 -0.4098  0.2141  1.1572
  170UNK    C04 1526  22.242   3.365   7.300  0.0854  0.1806 -0.6035
  170UNK    F05 1527  22.241   3.311   7.423 -0.1688  0.0811  0.0613
  170UNK    F06 1528  22.115   3.396   7.268  0.2854  0.3923  0.3753
  170UNK    F07 1529  22.295   3.263   7.227 -0.2476 -0.0414  0.2722
  170UNK    H08 1530  22.271   3.574   7.339  0.4546  1.2275  0.2772
  171UNK    F00 1531  25.473   4.530   5.858  0.0469 -0.7167  0.4347
  171UNK    C01 1532  25.555   4.615   5.797 -0.0132 -0.0434 -0.6674
  171UNK    H02 1533  25.510   4.714   5.792  0.5568  0.1760 -1.5875
  171UNK    C03 1534  25.642   4.578   5.702 -0.6001  0.4008  0.1549
  171UNK    C04 1535  25.706   4.447   5.701 -0.0232 -0.4589 -0.2817
  171UNK    F05 1536  25.627   4.363   5.638  0.0745  0.5028 -0.0138
  171UNK    F06 1537  25.818   4.441   5.626 -0.0465  0.3397 -0.3324
  171UNK    F07 1538  25.737   4.391   5.823 -0.1260  0.5008  0.4655
  171UNK    H08 1539  25.672   4.641   5.620  0.1689 -1.0604 -0.7164
  172UNK    F00 1540  19.539   4.811  13.657 -0.3935  0.1965 -0.3762
  172UNK    C01 1541  19.486   4.913  13.727  0.2804 -0.7815  0.1244
  172UNK    H02 1542  19.539   4.921  13.822 -2.1789  0.5032  1.4236
  172UNK    C03 1543  19.375   4.966  13.683 -0.3591 -0.1644  0.1346
  172UNK    C04 1544  19.335   5.105  13.713  0.2188 -0.5464 -0.0860
  172UNK    F05 1545  19.203   5.107  13.741 -0.3314 -0.1164  0.3388
  172UNK    F06 1546  19.394   5.159  13.822 -0.0190  0.4066 -0.0933
  172UNK    F07 1547  19.369   5.176  13.605  0.2153  0.0095 -0.0716
  172UNK    H08 1548  19.329   4.930  13.592  1.4342  2.8449 -2.0407
  173UNK    F00 1549  22.775   3.971   5.467  0.1540 -0.1753 -0.2142
  173UNK    C01 1550  22.821   4.056   5.562  1.0854  0.2227  0.5866
  173UNK    H02 1551  22.740   4.122   5.593  0.6265 -0.7610  1.5033
  173UNK    C03 1552  22.944   4.050   5.611  0.2048  0.6866  0.1181
  173UNK    C04 1553  22.995   4.139   5.711 -0.2358  0.2704 -0.0195
  173UNK    F05 1554  22.988   4.264   5.672  0.5961  0.0809  0.2092
  173UNK    F06 1555  22.938   4.114   5.836 -0.5582 -0.0973  0.1455
  173UNK    F07 1556  23.130   4.115   5.721 -0.3899  0.0330 -0.0781
  173UNK    H08 1557  23.013   3.978   5.569 -1.5298 -0.1508 -1.3345
  174UNK    F00 1558  23.600   0.478   9.295  0.2242 -0.2190 -0.1446
  174UNK    C01 1559  23.689   0.383   9.330 -0.3382  0.0760  0.2928
  174UNK    H02 1560  23.646   0.298   9.382 -0.3287 -0.3123 -0.3297
  174UNK    C03 1561  23.818   0.419   9.353  0.4111 -0.1930 -0.4035
  174UNK    C04 1562  23.932   0.327   9.353 -0.2949 -0.4301  0.4467
  174UNK    F05 1563  24.054   0.381   9.390  0.2510 -0.3030  0.2534
  174UNK    F06 1564  23.919   0.224   9.437  0.3393 -0.0221 -0.4215
  174UNK    F07 1565  23.945   0.274   9.227 -0.0314 -0.1701  0.2994
  174UNK    H08 1566  23.836   0.513   9.402  2.3299 -2.5605  3.7043
  175UNK    F00 1567  22.569   0.038   7.041 -0.1348 -0.2360 -0.5491
  175UNK    C01 1568  22.608   0.166   7.039 -0.4084 -0.5055  0.1988
  175UNK    H02 1569  22.716   0.183   7.039 -0.7922  2.1295  0.3618
  175UNK    C03 1570  22.523   0.245   6.977  0.6131 -0.1753 -0.3432
  175UNK    C04 1571  22.420   0.319   7.050 -0.2607 -0.3305  0.1216
  175UNK    F05 1572  22.325   0.350   6.965  0.4034 -0.9748  0.3649
  175UNK    F06 1573  22.368   0.248   7.156 -0.2679 -1.0665  0.1883
  175UNK    F07 1574  22.463   0.441   7.086  0.2216  0.2120 -0.4152
  175UNK    H08 1575  22.489   0.209   6.881  0.7513  2.1389 -1.2741
  176UNK    F00 1576  26.444   0.396  11.520 -0.1696  0.1515  0.0894
  176UNK    C01 1577  26.387   0.492  11.597 -0.0176 -0.0182 -0.3770
  176UNK    H02 1578  26.460   0.539  11.664 -1.0407  0.9739  0.0463
  176UNK    C03 1579  26.254   0.508  11.592  0.9124 -0.0273  1.1215
  176UNK    C04 1580  26.183   0.623  11.637 -0.1805 -0.1294 -0.8107
  176UNK    F05 1581  26.258   0.677  11.737  0.3574  0.3118 -0.2374
  176UNK    F06 1582  26.171   0.723  11.551 -0.2550 -0.4202  0.1170
  176UNK    F07 1583  26.059   0.591  11.677  0.1979  0.3907 -0.8787
  176UNK    H08 1584  26.203   0.415  11.613 -1.0402  0.6550 -0.5120
  177UNK    F00 1585  23.945   4.527   7.599  0.7206 -0.5882 -0.8477
  177UNK    C01 1586  23.945   4.573   7.479 -0.1543 -0.0546 -0.5830
  177UNK    H02 1587  23.881   4.661   7.469 -0.3103 -0.0908  0.0936
  177UNK    C03 1588  23.999   4.507   7.382  0.8577 -0.1785  0.5371
  177UNK    C04 1589  24.081   4.568   7.281 -0.5029 -0.2677  0.0640
  177UNK    F05 1590  24.110   4.470   7.197  0.2082  0.3801 -0.3934
  177UNK    F06 1591  24.017   4.671   7.215 -0.3340  0.1133  0.2769
  177UNK    F07 1592  24.190   4.623   7.341  0.2626 -0.2227 -0.6487
  177UNK    H08 1593  24.031   4.409   7.415 -0.2058 -0.4184  0.8525
  178UNK    F00 1594  23.934   0.002   8.739  0.2906  0.5221  0.0683
  178UNK    C01 1595  24.019  -0.020   8.642  0.7690  0.4557 -0.1975
  178UNK    H02 1596  24.112   0.038   8.643 -0.0149  1.7172  1.0956
  178UNK    C03 1597  24.009  -0.134   8.573  0.3613 -1.0697 -0.2211
  178UNK    C04 1598  24.052  -0.262   8.629  0.2352 -0.0021  0.2013
  178UNK    F05 1599  24.008  -0.360   8.541  0.0036  0.3770  0.0909
  178UNK    F06 1600  24.187  -0.264   8.647  0.2607  0.4921  0.4836
  178UNK    F07 1601  23.995  -0.288   8.749  0.4482  0.5121  0.1521
  178UNK    H08 1602  23.919  -0.151   8.515 -0.2805 -0.2295  0.5128
  179UNK    F00 1603  23.591   1.689   5.217 -0.4476  0.2250  0.3134
  179UNK    C01 1604  23.588   1.641   5.341 -0.4280  0.0532 -0.1952
  179UNK    H02 1605  23.626   1.718   5.408  3.1223  0.0591 -2.1231
  179UNK    C03 1606  23.515   1.533   5.377 -0.1759  0.2846 -0.2080
  179UNK    C04 1607  23.566   1.399   5.369  0.1623  0.7674  0.5149
  179UNK    F05 1608  23.460   1.321   5.333  0.0788 -0.2225  0.4898
  179UNK    F06 1609  23.660   1.385   5.276  0.0429 -0.3076  0.6842
  179UNK    F07 1610  23.619   1.342   5.484 -0.4843 -0.1435 -0.1849
  179UNK    H08 1611  23.409   1.554   5.375 -0.1288  0.4599 -0.8076
  180UNK    F00 1612  21.620   3.699   6.304 -0.2233 -0.0466 -0.0867
  180UNK    C01 1613  21.747   3.667   6.342  0.0900 -0.0015 -1.1706
  180UNK    H02 1614  21.797   3.626   6.255 -0.3995  0.8193 -1.8384
  180UNK    C03 1615  21.791   3.753   6.434  0.3205 -0.1956  0.3399
  180UNK    C04 1616  21.934   3.769   6.463  0.0110 -0.1310  0.5315
  180UNK    F05 1617  21.942   3.847   6.575 -0.1658 -0.2743 -0.2166
  180UNK    F06 1618  22.006   3.655   6.497  0.0781  0.5554 -0.1053
  180UNK    F07 1619  21.992   3.824   6.353 -0.0644 -0.0387 -0.4290
  180UNK    H08 1620  21.728   3.841   6.443  1.4754  0.9173 -2.0106
  181UNK    F00 1621  23.785   5.174   5.451 -0.1930 -0.5905  0.1955
  181UNK    C01 1622  23.727   5.214   5.564  0.5561  0.1358 -0.0762
  181UNK    H02 1623  23.676   5.132   5.615  1.4573 -0.2574  0.1896
  181UNK    C03 1624  23.756   5.330   5.620  0.1488  0.1734  0.0069
  181UNK    C04 1625  23.771   5.350   5.766 -0.3099  0.1789  0.5499
  181UNK    F05 1626  23.888   5.302   5.816  0.8071 -0.0232  0.0525
  181UNK    F06 1627  23.764   5.480   5.802 -0.0439 -0.0828 -0.1718
  181UNK    F07 1628  23.676   5.287   5.830 -0.5445 -0.2046 -0.2289
  181UNK    H08 1629  23.814   5.407   5.571  0.8319 -1.0145 -1.0607
  182UNK    F00 1630  25.122   1.841   9.512 -0.1064 -0.1699  0.2703
  182UNK    C01 1631  25.074   1.919   9.413  0.6533  0.5479  0.6325
  182UNK    H02 1632  25.142   1.936   9.329 -0.2106 -0.4706 -0.2877
  182UNK    C03 1633  24.964   1.986   9.451  0.0355  0.8403  0.0395
  182UNK    C04 1634  24.856   1.920   9.526  1.0095 -0.3162 -0.3740
  182UNK    F05 1635  24.823   1.803   9.469 -0.1273  0.0600  0.4304
  182UNK    F06 1636  24.894   1.892   9.654 -0.4571  0.5619  0.8266
  182UNK    F07 1637  24.750   2.006   9.528  0.5488 -0.0096  0.1412
  182UNK    H08 1638  24.970   2.091   9.475 -2.4254  1.2730 -1.1217
  183UNK    F00 1639  24.944   0.422   4.789  0.1461  0.1570 -0.3219
  183UNK    C01 1640  24.953   0.309   4.854  0.2239  0.5456 -0.4559
  183UNK    H02 1641  24.854   0.272   4.881  0.7049 -1.4886 -1.3961
  183UNK    C03 1642  25.063   0.231   4.844  0.2549 -0.7882  0.1653
  183UNK    C04 1643  25.054   0.080   4.846 -0.0634  0.6434 -0.4721
  183UNK    F05 1644  25.023   0.033   4.723  0.1699  0.2557 -0.1709
  183UNK    F06 1645  25.170   0.014   4.880 -0.1685  0.2850  0.0778
  183UNK    F07 1646  24.959   0.037   4.934 -0.4873 -0.1260 -0.1746
  183UNK    H08 1647  25.162   0.271   4.834  0.0827 -0.4307 -0.1401
  184UNK    F00 1648  26.005   1.114   4.862 -0.2915 -0.3297  0.3401
  184UNK    C01 1649  25.995   1.091   4.996  0.1947 -0.1346  0.1817
  184UNK    H02 1650  25.946   0.996   5.020 -0.9476  0.8329  1.7892
  184UNK    C03 1651  25.971   1.205   5.074  0.4116  0.5847 -0.2178
  184UNK    C04 1652  25.957   1.199   5.221  0.1328  0.6788  0.0454
  184UNK    F05 1653  25.927   1.324   5.272  0.4068  0.4143  0.1718
  184UNK    F06 1654  25.861   1.108   5.263 -0.3649  0.6797  0.3068
  184UNK    F07 1655  26.070   1.159   5.280 -0.3330  0.5375 -0.4259
  184UNK    H08 1656  25.988   1.303   5.032  2.8769  0.8051  1.2214
  185UNK    F00 1657  23.635   2.117   7.950 -0.1212  0.5244 -0.5752
  185UNK    C01 1658  23.527   2.111   8.032 -0.8274  0.4929  0.1842
  185UNK    H02 1659  23.438   2.163   7.996 -0.6154 -0.2863 -1.4801
  185UNK    C03 1660  23.537   2.035   8.142  0.0266  0.1968 -0.4316
  185UNK    C04 1661  23.611   2.073   8.260 -0.7985 -0.2468 -0.3974
  185UNK    F05 1662  23.736   2.116   8.222  0.3224 -0.1655  0.3331
  185UNK    F06 1663  23.558   2.183   8.321  0.0135 -0.0002  0.2647
  185UNK    F07 1664  23.631   1.967   8.339 -0.2721 -0.6136 -0.4249
  185UNK    H08 1665  23.523   1.929   8.129 -0.2708  0.3358 -1.2556
  186UNK    F00 1666  23.921   3.682   8.220 -0.2506 -0.1403 -0.3797
  186UNK    C01 1667  23.820   3.756   8.266 -0.3345 -0.3243 -0.0964
  186UNK    H02 1668  23.851   3.851   8.310 -0.6397 -0.2623 -0.0122
  186UNK    C03 1669  23.696   3.714   8.245  0.4142  0.7211  0.6254
  186UNK    C04 1670  23.651   3.688   8.106  0.3472  0.1621  0.7545
  186UNK    F05 1671  23.705   3.570   8.061  0.0799 -0.6734  0.4856
  186UNK    F06 1672  23.515   3.669   8.107  0.2116 -0.1338  0.2562
  186UNK    F07 1673  23.671   3.790   8.020 -0.1221 -0.1414  0.0914
  186UNK    H08 1674  23.641   3.649   8.311 -0.1177 -0.6884 -1.1716
  187UNK    F00 1675  24.190   2.618   8.073  0.1632  0.2028  0.3808
  187UNK    C01 1676  24.120   2.551   7.977  0.2173  0.1852  0.6354
  187UNK    H02 1677  24.183   2.529   7.891  2.7816  3.2265  1.6512
  187UNK    C03 1678  24.010   2.485   8.019  0.8774 -0.4214  0.1519
  187UNK    C04 1679  23.954   2.373   7.944  0.5629  0.3384 -0.2282
  187UNK    F05 1680  23.950   2.391   7.809 -0.6541  0.1236  0.3973
  187UNK    F06 1681  24.020   2.255   7.968 -0.4943  0.2345  0.3517
  187UNK    F07 1682  23.827   2.354   7.989 -0.4163 -0.5510 -0.3808
  187UNK    H08 1683  23.942   2.535   8.086  3.2609  1.0238  1.5328
  188UNK    F00 1684  22.457   3.547  10.093 -0.4277 -0.1533  0.4629
  188UNK    C01 1685  22.379   3.610  10.009 -0.9257 -0.2662  0.5423
  188UNK    H02 1686  22.289   3.550   9.999 -0.0963 -1.4439  0.0280
  188UNK    C03 1687  22.383   3.741  10.006 -0.6293 -0.3565 -0.4599
  188UNK    C04 1688  22.278   3.818   9.939  0.0296  0.5115  0.7982
  188UNK    F05 1689  22.210   3.739   9.846 -0.0921 -0.5681 -0.9693
  188UNK    F06 1690  22.189   3.863  10.030 -0.1996 -0.5261 -0.0941
  188UNK    F07 1691  22.327   3.932   9.887  0.0609 -0.2382  0.4584
  188UNK    H08 1692  22.405   3.794  10.098  0.4435 -0.3890 -0.6993
  189UNK    F00 1693  22.435   3.038   6.929 -0.1620 -0.1213  0.4673
  189UNK    C01 1694  22.543   3.110   6.952  0.0781 -0.6993  0.1408
  189UNK    H02 1695  22.606   3.065   7.029  0.6856 -1.5108 -0.8070
  189UNK    C03 1696  22.538   3.234   6.924 -0.3352  0.2117  0.4357
  189UNK    C04 1697  22.659   3.300   6.886 -0.0108 -0.1484 -0.4535
  189UNK    F05 1698  22.758   3.271   6.975 -0.2397 -0.7196  0.3031
  189UNK    F06 1699  22.717   3.274   6.766  0.4273 -0.1912  0.4989
  189UNK    F07 1700  22.636   3.437   6.886  0.1236  0.0700 -0.2262
  189UNK    H08 1701  22.466   3.263   6.849 -0.1187  3.2004  1.3083
  190UNK    F00 1702  24.659   4.570   8.132 -0.0142 -0.3743 -0.4626
  190UNK    C01 1703  24.790   4.599   8.141 -0.5871  0.0287  0.1358
  190UNK    H02 1704  24.805   4.703   8.112  0.4640 -0.4897 -1.2220
  190UNK    C03 1705  24.867   4.508   8.189  0.2726  0.3521  0.2836
  190UNK    C04 1706  24.842   4.443   8.316  0.5505 -0.0804  0.0057
  190UNK    F05 1707  24.733   4.375   8.296  0.5153  0.4280 -0.2310
  190UNK    F06 1708  24.938   4.351   8.354  0.1486  0.3284  0.2144
  190UNK    F07 1709  24.834   4.524   8.428  0.0432  0.3133 -0.4572
  190UNK    H08 1710  24.972   4.516   8.162 -0.5098  1.7453 -2.4167
  191UNK    F00 1711  23.642   3.659   5.961  0.0064  0.6298 -0.5249
  191UNK    C01 1712  23.730   3.613   5.867  1.3487  0.4211 -1.0097
  191UNK    H02 1713  23.835   3.617   5.894  1.1252 -1.3124  0.2738
  191UNK    C03 1714  23.670   3.566   5.757 -0.8865 -0.0609  0.6522
  191UNK    C04 1715  23.752   3.500   5.656 -0.2832  0.3404 -0.2782
  191UNK    F05 1716  23.878   3.546   5.646 -0.1137 -0.1991  0.5837
  191UNK    F06 1717  23.763   3.370   5.690 -0.2596 -0.1563  0.3580
  191UNK    F07 1718  23.696   3.495   5.534 -0.5559  0.3456 -0.3095
  191UNK    H08 1719  23.566   3.587   5.736 -0.3178  3.1973  0.8224
  192UNK    F00 1720  23.158   4.331   7.094 -0.5791 -0.0691  0.5340
  192UNK    C01 1721  23.098   4.276   6.987 -0.7953 -0.4162 -0.2202
  192UNK    H02 1722  23.155   4.210   6.922 -2.6446  0.1865 -2.5112
  192UNK    C03 1723  22.977   4.323   6.965 -1.2750 -0.0784  0.1345
  192UNK    C04 1724  22.874   4.321   7.075 -0.2307 -0.2826  1.1377
  192UNK    F05 1725  22.880   4.409   7.175 -0.4375  0.0492 -0.2608
  192UNK    F06 1726  22.755   4.343   7.017 -0.3800  0.2988  0.8982
  192UNK    F07 1727  22.842   4.205   7.127 -0.0963 -0.1403 -0.1558
  192UNK    H08 1728  22.973   4.424   6.927 -0.5335 -0.3826 -0.7678
  193UNK    F00 1729  23.901   1.682   8.350  0.3466 -0.0841  0.3577
  193UNK    C01 1730  23.821   1.692   8.462 -0.4529 -0.1479 -0.0536
  193UNK    H02 1731  23.715   1.697   8.435 -0.6702  0.3791  0.9097
  193UNK    C03 1732  23.871   1.710   8.588 -0.6071 -0.0774  0.5054
  193UNK    C04 1733  23.985   1.630   8.642  0.0443 -0.2185 -0.1834
  193UNK    F05 1734  23.976   1.500   8.611  0.2189  0.0188 -0.0273
  193UNK    F06 1735  24.110   1.687   8.623  0.1175  0.5210  0.3164
  193UNK    F07 1736  23.973   1.641   8.781  0.5642 -0.5029 -0.3172
  193UNK    H08 1737  23.878   1.810   8.629 -1.4893  0.9141 -1.6588
  194UNK    F00 1738  24.588   0.690   5.972 -0.3441  0.1683 -0.0048
  194UNK    C01 1739  24.492   0.778   5.973 -0.9813 -0.3276 -0.0535
  194UNK    H02 1740  24.515   0.852   6.050  0.1535 -0.3600 -0.3452
  194UNK    C03 1741  24.409   0.789   5.872 -0.3869  0.7949  0.1096
  194UNK    C04 1742  24.347   0.917   5.828 -0.5979  0.1604 -0.3583
  194UNK    F05 1743  24.417   0.992   5.740 -0.4115 -0.1439 -0.0026
  194UNK    F06 1744  24.226   0.898   5.780  0.2591 -0.1188 -0.0108
  194UNK    F07 1745  24.340   0.998   5.938  0.0825  0.0032  0.4073
  194UNK    H08 1746  24.421   0.725   5.787  2.7029  0.2752  0.8876
  195UNK    F00 1747  23.428   3.870   7.075 -0.5548  0.1117 -0.4393
  195UNK    C01 1748  23.473   3.899   6.952  0.8627 -0.1807 -0.2825
  195UNK    H02 1749  23.504   4.004   6.944  1.2512 -0.1020  1.9627
  195UNK    C03 1750  23.492   3.807   6.864  0.3559  0.0043  0.3446
  195UNK    C04 1751  23.378   3.766   6.777 -0.1005  0.4303  0.0021
  195UNK    F05 1752  23.358   3.858   6.680 -0.3961  0.3200 -0.0235
  195UNK    F06 1753  23.412   3.652   6.713 -0.0607 -0.1615 -0.4250
  195UNK    F07 1754  23.262   3.743   6.853 -0.7214  0.2785 -0.0945
  195UNK    H08 1755  23.582   3.810   6.805  0.0232  0.9810 -0.1273
  196UNK    F00 1756  22.261   2.834   8.777 -0.3977  0.5023 -0.1944
  196UNK    C01 1757  22.229   2.854   8.645 -0.5053  0.6833  0.8641
  196UNK    H02 1758  22.183   2.951   8.624 -1.1486  0.2708  0.3166
  196UNK    C03 1759  22.288   2.781   8.552  0.1015  0.2461  0.0977
  196UNK    C04 1760  22.313   2.839   8.419  0.2290 -0.6386 -0.0684
  196UNK    F05 1761  22.218   2.923   8.374  0.2527  0.7504  0.8134
  196UNK    F06 1762  22.431   2.912   8.410 -0.6690  0.4216 -0.4522
  196UNK    F07 1763  22.331   2.741   8.328 -0.3502  0.2479 -0.5079
  196UNK    H08 1764  22.360   2.704   8.573 -0.9738 -1.4742 -2.2882
  197UNK    F00 1765  26.465   3.223  12.970  0.3664  0.1178 -0.5405
  197UNK    C01 1766  26.435   3.285  12.857 -0.4437  0.6181 -0.7189
  197UNK    H02 1767  26.502   3.254  12.776  2.7981 -0.4042  2.1985
  197UNK    C03 1768  26.383   3.409  12.863  0.0806  1.2076  0.3495
  197UNK    C04 1769  26.478   3.515  12.890 -0.1117  0.0903 -0.2321
  197UNK    F05 1770  26.573   3.465  12.976 -0.1523 -0.0085  0.1160
  197UNK    F06 1771  26.524   3.574  12.770  0.5842 -0.0611 -0.8509
  197UNK    F07 1772  26.413   3.611  12.962  0.4367  0.3123 -0.2263
  197UNK    H08 1773  26.280   3.428  12.888 -0.6706 -1.4120 -0.5448
  198UNK    F00 1774  23.460   0.563   7.154 -0.2709 -0.2194 -0.2192
  198UNK    C01 1775  23.333   0.568   7.104  0.2732  0.0877  0.4777
  198UNK    H02 1776  23.296   0.468   7.083 -1.3004  0.4687  1.3944
  198UNK    C03 1777  23.297   0.681   7.032  0.3908  0.5280 -0.2306
  198UNK    C04 1778  23.165   0.718   6.984  0.0511  0.5915  0.3669
  198UNK    F05 1779  23.111   0.624   6.908 -0.3832 -0.1226 -0.6105
  198UNK    F06 1780  23.080   0.752   7.085  0.4098  0.0288 -0.3674
  198UNK    F07 1781  23.179   0.822   6.896  0.5477 -0.0620  0.2475
  198UNK    H08 1782  23.364   0.764   7.044 -1.2200  1.9107 -0.5616
  199UNK    F00 1783  22.684   1.804   6.350  0.8360  0.0526  0.1515
  199UNK    C01 1784  22.720   1.696   6.410 -0.1408 -0.4357  0.3776
  199UNK    H02 1785  22.823   1.671   6.385 -0.4740 -0.0439 -1.4333
  199UNK    C03 1786  22.670   1.668   6.528  0.8692  0.5655  1.0374
  199UNK    C04 1787  22.612   1.775   6.611 -0.2887  0.0999 -1.1957
  199UNK    F05 1788  22.481   1.799   6.579  0.2656 -0.2403 -0.1574
  199UNK    F06 1789  22.607   1.744   6.742  0.1556  0.3963 -0.3920
  199UNK    F07 1790  22.685   1.894   6.614  0.3245 -0.1380 -0.2437
  199UNK    H08 1791  22.636   1.569   6.555 -1.3643  1.4673  1.6421
  200UNK    F00 1792  23.415   2.691   7.596  0.4620  0.0122 -0.5349
  200UNK    C01 1793  23.415   2.564   7.623  0.3973 -0.1948 -0.4981
  200UNK    H02 1794  23.507   2.512   7.595 -0.1683 -1.7344  0.4010
  200UNK    C03 1795  23.309   2.499   7.669  1.1277 -0.1249 -0.8570
  200UNK    C04 1796  23.315   2.375   7.750 -0.3339 -0.3547  0.4444
  200UNK    F05 1797  23.193   2.320   7.769  0.0236 -0.2540  0.5143
  200UNK    F06 1798  23.398   2.267   7.707  0.6956  0.2053 -0.0782
  200UNK    F07 1799  23.363   2.403   7.872  0.3782 -0.3599 -0.6099
  200UNK    H08 1800  23.217   2.553   7.683  1.5748 -0.2288  2.8436
  201UNK    F00 1801  23.829   2.977   5.062  0.0415 -0.6611  0.0222
  201UNK    C01 1802  23.750   3.080   5.040 -0.2384 -0.1056  0.3728
  201UNK    H02 1803  23.739   3.095   4.933  1.6896  1.6699  0.3898
  201UNK    C03 1804  23.665   3.119   5.136  0.8598 -0.0640 -1.0270
  201UNK    C04 1805  23.611   3.258   5.148  0.3976 -0.0882  0.6688
  201UNK    F05 1806  23.705   3.345   5.127 -0.1566 -0.1381  0.4439
  201UNK    F06 1807  23.506   3.278   5.062 -0.5930  0.4966  0.1190
  201UNK    F07 1808  23.572   3.277   5.277 -0.2809  0.0012 -0.3252
  201UNK    H08 1809  23.690   3.077   5.233  1.2535 -0.3619 -1.2585
  202UNK    F00 1810  24.500   0.535  10.486  0.3553 -0.1867  0.3608
  202UNK    C01 1811  24.513   0.665  10.453 -0.0593  0.5670 -0.0260
  202UNK    H02 1812  24.576   0.717  10.525  2.5744 -2.3124 -0.1058
  202UNK    C03 1813  24.445   0.719  10.355 -0.2820  0.5130  0.3862
  202UNK    C04 1814  24.301   0.748  10.380 -0.1280  0.1143 -0.0867
  202UNK    F05 1815  24.235   0.643  10.428  0.0700 -0.0670 -0.7142
  202UNK    F06 1816  24.290   0.841  10.476 -0.2491 -0.1550 -0.6282
  202UNK    F07 1817  24.233   0.794  10.271 -0.2054 -0.4987  0.2422
  202UNK    H08 1818  24.497   0.809  10.326  0.1288  0.1215 -0.0924
  203UNK    F00 1819  24.692   2.731   8.118 -0.4886  0.0355  0.1220
  203UNK    C01 1820  24.574   2.757   8.168 -0.7868 -0.0243 -0.2529
  203UNK    H02 1821  24.524   2.838   8.113 -0.6603 -0.9403 -1.7412
  203UNK    C03 1822  24.563   2.723   8.298 -0.5680 -0.5555  0.2195
  203UNK    C04 1823  24.428   2.672   8.346 -0.1936  0.3222  0.3793
  203UNK    F05 1824  24.402   2.553   8.290 -0.1284 -0.0862  0.4054
  203UNK    F06 1825  24.439   2.648   8.477 -0.7470  0.5896 -0.3618
  203UNK    F07 1826  24.320   2.752   8.320 -0.3716  0.3966 -0.1419
  203UNK    H08 1827  24.648   2.721   8.364  1.0451  4.6403 -1.4276
  204UNK    F00 1828  24.711   2.365   8.958 -0.0437  0.8146 -0.2696
  204UNK    C01 1829  24.633   2.380   9.068  0.0100 -0.2108 -0.5526
  204UNK    H02 1830  24.553   2.307   9.056  0.2050 -0.8181  1.7888
  204UNK    C03 1831  24.668   2.450   9.174  0.1834  0.2546 -0.3099
  204UNK    C04 1832  24.593   2.429   9.300  0.2757  0.5765  0.3924
  204UNK    F05 1833  24.592   2.295   9.331  0.3204 -0.1788 -0.4091
  204UNK    F06 1834  24.671   2.486   9.393 -0.0070  0.0430 -0.2561
  204UNK    F07 1835  24.463   2.480   9.318 -0.3032  0.4636 -0.4046
  204UNK    H08 1836  24.688   2.555   9.156 -2.1385  0.2972 -3.1156
  205UNK    F00 1837  25.365   1.845   8.550  0.2872  0.4288  0.1031
  205UNK    C01 1838  25.336   1.851   8.418 -0.4640  0.3488  0.3331
  205UNK    H02 1839  25.426   1.898   8.380 -0.5908 -0.5914 -1.1580
  205UNK    C03 1840  25.220   1.868   8.366  0.3327 -0.0571 -0.3303
  205UNK    C04 1841  25.172   1.865   8.220 -0.7797  0.1376  0.0145
  205UNK    F05 1842  25.072   1.778   8.193 -0.2059  0.1119  0.2478
  205UNK    F06 1843  25.119   1.986   8.190  0.5037 -0.3618  0.7108
  205UNK    F07 1844  25.284   1.839   8.141  0.3020 -0.4568  0.8182
  205UNK    H08 1845  25.153   1.924   8.430 -0.0651 -1.3639  0.4074
  206UNK    F00 1846  25.336   1.070   9.232 -0.0488 -0.1851 -0.4732
  206UNK    C01 1847  25.316   1.056   9.099 -0.1072 -1.1673  0.5636
  206UNK    H02 1848  25.261   0.963   9.083 -1.3731 -0.5711  1.4263
  206UNK    C03 1849  25.349   1.153   9.012  0.0817  0.0040  0.1149
  206UNK    C04 1850  25.252   1.195   8.908 -0.3451 -0.3709  0.2941
  206UNK    F05 1851  25.216   1.094   8.827 -0.0282 -0.0896 -0.3416
  206UNK    F06 1852  25.145   1.262   8.957  0.1750  0.3305  0.0499
  206UNK    F07 1853  25.319   1.280   8.828  0.3785 -0.0159  0.2193
  206UNK    H08 1854  25.435   1.217   9.025  0.7469 -0.6810 -0.8613
  207UNK    F00 1855  24.885   0.652   6.499 -0.5415 -0.8639 -0.5573
  207UNK    C01 1856  24.836   0.717   6.390 -0.4145 -0.0348 -0.0332
  207UNK    H02 1857  24.846   0.646   6.308  0.7672 -0.3727  0.4030
  207UNK    C03 1858  24.752   0.817   6.407 -0.1560  0.4101  0.0838
  207UNK    C04 1859  24.783   0.957   6.387  0.5674 -0.6209 -0.0690
  207UNK    F05 1860  24.792   0.974   6.254  0.0463  0.5041 -0.0798
  207UNK    F06 1861  24.691   1.046   6.441 -0.5393  0.1696  0.1965
  207UNK    F07 1862  24.908   0.989   6.437 -0.4313 -0.2018  0.3906
  207UNK    H08 1863  24.691   0.803   6.495 -0.0669 -0.6240 -0.0125
  208UNK    F00 1864  23.752   3.949   7.409  0.0118  0.0522  0.2614
  208UNK    C01 1865  23.734   4.053   7.331  0.4747 -0.5726  0.5281
  208UNK    H02 1866  23.827   4.107   7.313 -0.0073  0.0559 -0.1210
  208UNK    C03 1867  23.616   4.078   7.278 -0.4946  0.5885  0.1779
  208UNK    C04 1868  23.585   4.192   7.189  0.3691 -0.9694 -0.9264
  208UNK    F05 1869  23.618   4.161   7.059 -0.1960 -0.5227  0.1392
  208UNK    F06 1870  23.452   4.230   7.183  0.8091  0.5396 -0.0280
  208UNK    F07 1871  23.654   4.313   7.211  0.3666  0.1384  0.0025
  208UNK    H08 1872  23.529   4.029   7.319 -0.6805  0.3891 -0.4590
  209UNK    F00 1873  23.717   3.777   7.738  0.1352 -0.4176 -0.5067
  209UNK    C01 1874  23.799   3.883   7.745 -0.2181 -0.0010 -0.2714
  209UNK    H02 1875  23.899   3.852   7.776 -0.1739 -0.2915 -0.6990
  209UNK    C03 1876  23.745   4.008   7.744 -0.5137  0.5697 -0.6074
  209UNK    C04 1877  23.816   4.138   7.734  0.4596 -0.6985  0.3440
  209UNK    F05 1878  23.942   4.129   7.785  0.0262 -0.5483 -0.4709
  209UNK    F06 1879  23.844   4.185   7.606  0.0827  0.4036  0.5062
  209UNK    F07 1880  23.746   4.240   7.798  0.4010  0.1081 -0.1128
  209UNK    H08 1881  23.655   4.018   7.803 -0.3346  0.7875 -0.3716
  210UNK    F00 1882  23.667   0.750   9.856  0.9158 -0.1051  0.2847
  210UNK    C01 1883  23.563   0.829   9.895 -0.3731  0.3280  0.5431
  210UNK    H02 1884  23.576   0.842  10.002  1.5077 -3.9142  0.9549
  210UNK    C03 1885  23.511   0.910   9.810 -0.3528  0.4788  0.5760
  210UNK    C04 1886  23.399   0.892   9.713  0.9923  0.0962 -0.1040
  210UNK    F05 1887  23.381   0.993   9.628  0.3621  0.7025 -0.0414
  210UNK    F06 1888  23.428   0.777   9.637 -0.4180 -0.0917 -0.0594
  210UNK    F07 1889  23.287   0.872   9.783  0.2792  0.0797  0.1239
  210UNK    H08 1890  23.578   0.978   9.760  0.1916  0.1364  0.8367
  211UNK    F00 1891  23.608   1.687   9.096  0.3152 -0.1741  0.3935
  211UNK    C01 1892  23.688   1.791   9.096  0.8070 -0.2150  0.6052
  211UNK    H02 1893  23.717   1.826   9.195  0.5304  0.5785  0.4077
  211UNK    C03 1894  23.709   1.868   8.989  0.7410 -0.2636  1.0730
  211UNK    C04 1895  23.613   1.966   8.933 -0.2725  0.1043 -0.1224
  211UNK    F05 1896  23.651   2.012   8.811  0.2652 -0.3925  0.5839
  211UNK    F06 1897  23.483   1.911   8.940  0.6402  0.4077 -0.1062
  211UNK    F07 1898  23.622   2.078   9.010  0.5396  0.4484  0.0205
  211UNK    H08 1899  23.804   1.850   8.940  0.3152 -1.2121  0.5848
  212UNK    F00 1900  25.081   1.640   7.488  0.5421  0.5378 -0.8010
  212UNK    C01 1901  25.046   1.561   7.586  0.2774 -0.0884  0.1858
  212UNK    H02 1902  25.035   1.458   7.552 -3.4692  0.7064 -1.2828
  212UNK    C03 1903  25.037   1.608   7.708 -0.0924  0.3216 -0.4735
  212UNK    C04 1904  25.162   1.670   7.761 -0.6270 -0.7607  0.0489
  212UNK    F05 1905  25.165   1.674   7.897 -0.0177  0.4048 -0.5018
  212UNK    F06 1906  25.260   1.579   7.741  0.1077 -0.1207  0.0378
  212UNK    F07 1907  25.193   1.793   7.715 -0.6163  0.3222 -0.2127
  212UNK    H08 1908  24.945   1.660   7.728 -1.6271 -3.5327  3.0109
  213UNK    F00 1909  26.432   1.546   5.606 -0.6337  0.4424 -0.2280
  213UNK    C01 1910  26.304   1.525   5.592  0.1825  0.0404 -0.1015
  213UNK    H02 1911  26.289   1.518   5.484  0.9325 -1.3664 -0.1266
  213UNK    C03 1912  26.219   1.542   5.689 -0.1015  0.2933 -0.1070
  213UNK    C04 1913  26.085   1.482   5.687  0.0266  0.4762 -1.2266
  213UNK    F05 1914  26.014   1.546   5.788  0.4046 -0.2739 -0.3182
  213UNK    F06 1915  26.025   1.501   5.565 -0.0973  0.1830  0.2941
  213UNK    F07 1916  26.088   1.347   5.689  0.0564 -0.0866 -0.2184
  213UNK    H08 1917  26.262   1.535   5.788  0.6550 -1.6500 -0.5584
  214UNK    F00 1918  23.752   0.139   7.001  0.4797  0.0562  0.5075
  214UNK    C01 1919  23.880   0.100   7.000  0.2473 -0.3304  0.3670
  214UNK    H02 1920  23.934   0.104   7.095  1.4340 -0.9033 -0.2801
  214UNK    C03 1921  23.924   0.057   6.880  0.2236 -0.3939 -0.3047
  214UNK    C04 1922  24.034  -0.037   6.858 -0.5506 -0.0772 -0.1136
  214UNK    F05 1923  24.124  -0.047   6.959  0.3977 -0.0843  0.4689
  214UNK    F06 1924  23.983  -0.161   6.865 -0.0112 -0.1859 -0.0268
  214UNK    F07 1925  24.095  -0.018   6.741 -0.0110 -0.2735  0.2085
  214UNK    H08 1926  23.869   0.075   6.789  1.4098  2.9013 -0.4426
  215UNK    F00 1927  24.457   1.448   8.453  0.2050 -0.1638  1.0101
  215UNK    C01 1928  24.447   1.573   8.397  0.9906 -0.1102 -0.0959
  215UNK    H02 1929  24.483   1.580   8.294 -0.3963  0.2951 -0.5626
  215UNK    C03 1930  24.422   1.672   8.476 -0.3477 -0.0824 -0.5765
  215UNK    C04 1931  24.370   1.799   8.420  0.3354 -0.1732  0.6796
  215UNK    F05 1932  24.442   1.826   8.308 -0.2988  0.3493  0.1289
  215UNK    F06 1933  24.238   1.796   8.385  0.0944 -0.6351 -0.0879
  215UNK    F07 1934  24.389   1.908   8.504 -0.3641  0.3463 -0.0045
  215UNK    H08 1935  24.430   1.667   8.584 -0.6103 -2.2237 -0.6255
  216UNK    F00 1936  23.708   1.324   9.486 -0.0746  0.0668  0.5830
  216UNK    C01 1937  23.832   1.379   9.474  0.2666 -0.4640  0.1971
  216UNK    H02 1938  23.879   1.306   9.409  0.0284 -0.8641  0.4704
  216UNK    C03 1939  23.854   1.513   9.491  0.7731  0.3541  0.2570
  216UNK    C04 1940  23.762   1.623   9.460 -0.2355  0.1944 -0.1212
  216UNK    F05 1941  23.677   1.591   9.364  0.2415 -0.3732 -0.0118
  216UNK    F06 1942  23.690   1.672   9.566 -0.0220  0.4342  0.3590
  216UNK    F07 1943  23.838   1.723   9.409 -0.3955 -0.0183  0.1055
  216UNK    H08 1944  23.923   1.536   9.570  1.8385  1.8020 -1.0831
  217UNK    F00 1945  23.630   1.521   9.802 -0.1760 -0.3790 -0.4534
  217UNK    C01 1946  23.583   1.647   9.818  0.2295 -0.0497 -0.3343
  217UNK    H02 1947  23.483   1.658   9.776  0.3380  0.1520 -0.5396
  217UNK    C03 1948  23.656   1.732   9.889 -0.4113  0.1886  0.1865
  217UNK    C04 1949  23.796   1.770   9.850  0.2508  0.0206  0.1176
  217UNK    F05 1950  23.856   1.840   9.950 -0.2836  0.0447 -0.3506
  217UNK    F06 1951  23.873   1.662   9.821 -0.1037 -0.0256 -0.1696
  217UNK    F07 1952  23.815   1.849   9.741 -0.6806 -0.3699 -0.6578
  217UNK    H08 1953  23.623   1.789   9.975 -2.2008 -1.0648  0.3474
  218UNK    F00 1954  23.363   0.416   7.369 -0.0028 -0.6882  0.1659
  218UNK    C01 1955  23.476   0.379   7.431  0.6948 -0.1635 -0.0319
  218UNK    H02 1956  23.549   0.459   7.446  2.1719 -1.5996  0.5399
  218UNK    C03 1957  23.511   0.257   7.408 -0.7304 -0.5925 -1.5376
  218UNK    C04 1958  23.589   0.213   7.301 -0.4572  0.4219 -0.4861
  218UNK    F05 1959  23.543   0.265   7.184  0.2288 -0.5256 -0.3078
  218UNK    F06 1960  23.714   0.261   7.328 -0.2048 -0.2951  0.6750
  218UNK    F07 1961  23.606   0.081   7.311 -0.2387 -0.2828  0.0431
  218UNK    H08 1962  23.462   0.173   7.455  1.4666 -1.3932 -0.5943
  219UNK    F00 1963  22.662   1.271   7.336 -0.0461 -0.2025  0.3687
  219UNK    C01 1964  22.618   1.216   7.219 -0.3938 -0.3643 -0.3229
  219UNK    H02 1965  22.592   1.112   7.238 -1.0445 -0.4486 -1.6386
  219UNK    C03 1966  22.538   1.297   7.148  0.1171 -0.0789 -0.2837
  219UNK    C04 1967  22.466   1.228   7.035  0.1400 -0.1134 -0.5411
  219UNK    F05 1968  22.340   1.199   7.081  0.2746  0.4226  0.3102
  219UNK    F06 1969  22.465   1.318   6.928  0.3213  0.1833  0.7088
  219UNK    F07 1970  22.515   1.116   6.983 -0.7684  0.3204 -0.2226
  219UNK    H08 1971  22.553   1.402   7.129  1.0831 -0.2067 -0.2109
  220UNK    F00 1972  24.259   2.068   6.856  0.3465  0.5814 -0.3256
  220UNK    C01 1973  24.321   1.976   6.928 -0.1392  0.0329 -0.2505
  220UNK    H02 1974  24.359   2.033   7.013 -0.2382 -2.3350  1.4160
  220UNK    C03 1975  24.316   1.844   6.914  0.0086  0.1517  0.0607
  220UNK    C04 1976  24.381   1.759   7.016  0.4257  0.5261 -0.1693
  220UNK    F05 1977  24.445   1.660   6.960 -0.9204  0.3720  0.3292
  220UNK    F06 1978  24.485   1.826   7.087  0.1851  0.1071 -0.2341
  220UNK    F07 1979  24.288   1.702   7.100  0.0995 -0.2486  0.0727
  220UNK    H08 1980  24.329   1.801   6.816  3.3669  0.4916  0.2883
  221UNK    F00 1981  23.119   4.885   8.481 -0.2260 -0.5738  0.3037
  221UNK    C01 1982  23.097   4.955   8.372  0.0602 -0.2239 -0.5915
  221UNK    H02 1983  22.995   4.945   8.335  0.2594  2.4764 -2.0334
  221UNK    C03 1984  23.196   5.018   8.306  1.1698  0.4475 -1.1277
  221UNK    C04 1985  23.170   5.144   8.233  0.1922 -0.0742  0.1406
  221UNK    F05 1986  23.284   5.216   8.215  0.0028  0.0825 -0.4488
  221UNK    F06 1987  23.121   5.123   8.112  0.2433 -0.2036 -0.1784
  221UNK    F07 1988  23.090   5.222   8.314  0.7060  0.1131  0.1116
  221UNK    H08 1989  23.289   4.981   8.266  0.5885 -1.5818 -0.6864
  222UNK    F00 1990  21.729   3.996   5.952  0.3353  0.3789  0.8210
  222UNK    C01 1991  21.802   4.032   6.054  0.5093  0.1159 -0.5990
  222UNK    H02 1992  21.892   3.971   6.063  0.1798 -0.7118 -2.7097
  222UNK    C03 1993  21.770   4.144   6.117  0.1422 -0.0334  0.1458
  222UNK    C04 1994  21.855   4.208   6.221  0.2291  0.3171 -0.1810
  222UNK    F05 1995  21.766   4.284   6.287 -0.4332  0.4123  0.1523
  222UNK    F06 1996  21.916   4.115   6.305 -0.4844  0.2970 -0.0120
  222UNK    F07 1997  21.946   4.298   6.176  0.2187  0.2202  0.5975
  222UNK    H08 1998  21.696   4.215   6.081  0.3342 -0.7996 -1.7873
  223UNK    F00 1999  23.029   1.792   7.455 -0.1610  0.0507  0.2153
  223UNK    C01 2000  22.946   1.690   7.424  0.0572  0.2119  0.4087
  223UNK    H02 2001  22.970   1.592   7.466  2.3499  0.5745  0.0165
  223UNK    C03 2002  22.861   1.712   7.318  0.7063  0.1901 -0.1757
  223UNK    C04 2003  22.718   1.669   7.317 -0.4843  0.6983 -0.2324
  223UNK    F05 2004  22.705   1.540   7.362  0.6898  0.3025 -0.5988
  223UNK    F06 2005  22.647   1.752   7.398 -0.1656  0.5375  0.1163
  223UNK    F07 2006  22.662   1.679   7.193  0.2884 -0.5858  0.0250
  223UNK    H08 2007  22.903   1.713   7.219  0.1629  2.5037 -0.4140
  224UNK    F00 2008  23.603   1.593   7.148  0.1192 -0.0568 -0.2301
  224UNK    C01 2009  23.513   1.670   7.202  0.3560 -0.1589 -0.2097
  224UNK    H02 2010  23.506   1.768   7.155  0.9343  0.0957  0.2239
  224UNK    C03 2011  23.431   1.619   7.293 -0.9786 -0.2577  0.4304
  224UNK    C04 2012  23.293   1.669   7.305 -0.1268  0.6066 -0.3998
  224UNK    F05 2013  23.233   1.608   7.413 -0.0963  0.3156  0.6442
  224UNK    F06 2014  23.300   1.799   7.334 -0.3332 -0.3482 -0.0396
  224UNK    F07 2015  23.212   1.641   7.200  0.1326 -0.0879  0.0801
  224UNK    H08 2016  23.455   1.525   7.340  0.8230 -0.8510 -1.6081
  225UNK    F00 2017  25.415   1.042   5.288 -0.4620  0.2781  0.2621
  225UNK    C01 2018  25.450   0.926   5.232 -0.0080  0.0292  0.2424
  225UNK    H02 2019  25.368   0.854   5.229  0.5278 -0.5450 -1.0388
  225UNK    C03 2020  25.577   0.924   5.186  0.2060 -0.3797  0.3932
  225UNK    C04 2021  25.641   0.838   5.091 -0.3480  0.3336  0.3113
  225UNK    F05 2022  25.776   0.820   5.105 -0.6955  0.0428  0.3432
  225UNK    F06 2023  25.576   0.721   5.081 -0.6605 -0.0928  0.4614
  225UNK    F07 2024  25.625   0.893   4.968 -0.1314 -0.0711 -0.2939
  225UNK    H08 2025  25.650   0.997   5.219 -0.3825  0.5060 -0.2315
  226UNK    F00 2026  22.797   1.248   6.925  1.0165  0.1577  0.1475
  226UNK    C01 2027  22.817   1.359   6.853 -0.5930  0.1228  0.3536
  226UNK    H02 2028  22.733   1.392   6.792 -0.5352  0.4379  0.4455
  226UNK    C03 2029  22.946   1.380   6.844 -0.5711 -0.2886 -0.8095
  226UNK    C04 2030  23.017   1.509   6.867  0.1578 -0.2182 -0.0772
  226UNK    F05 2031  23.040   1.530   6.999  0.4145  0.3672 -0.3550
  226UNK    F06 2032  23.138   1.518   6.808 -0.0728  0.1067 -0.3032
  226UNK    F07 2033  22.946   1.611   6.823  0.1152  0.0974 -0.1834
  226UNK    H08 2034  23.003   1.302   6.892 -0.6078 -0.2586 -0.7145
  227UNK    F00 2035  22.921   2.379   5.462 -0.6084 -0.2364  0.1124
  227UNK    C01 2036  22.971   2.261   5.501  0.4081  0.3019  0.8356
  227UNK    H02 2037  22.884   2.196   5.511 -0.5030  1.5267  1.0724
  227UNK    C03 2038  23.084   2.258   5.572  0.2413  0.2345 -0.7254
  227UNK    C04 2039  23.168   2.136   5.595  0.2109 -1.0254  0.2616
  227UNK    F05 2040  23.109   2.033   5.649  0.0381  0.0269 -0.1858
  227UNK    F06 2041  23.226   2.082   5.481  0.0152 -0.1947 -0.3481
  227UNK    F07 2042  23.284   2.170   5.663  0.0972 -0.5864 -0.0759
  227UNK    H08 2043  23.125   2.355   5.597  0.2161  0.3369 -1.0674
  228UNK    F00 2044  25.550   0.015   7.259 -0.1457  0.0394 -0.1467
  228UNK    C01 2045  25.524  -0.087   7.177 -0.3687 -0.2961 -0.4240
  228UNK    H02 2046  25.438  -0.061   7.116  0.3258  1.2505 -0.7718
  228UNK    C03 2047  25.615  -0.177   7.147 -0.9185  0.1764  0.1981
  228UNK    C04 2048  25.667  -0.276   7.243  0.2173 -0.0515 -0.5609
  228UNK    F05 2049  25.796  -0.325   7.234 -0.0028 -0.0455 -0.5140
  228UNK    F06 2050  25.678  -0.214   7.362  0.6850  0.6906  0.0906
  228UNK    F07 2051  25.583  -0.378   7.270  0.4137 -0.3270  0.3167
  228UNK    H08 2052  25.630  -0.200   7.042 -2.5131 -0.1393  0.0169
  229UNK    F00 2053  24.125   2.963   8.745 -0.0230  0.0239  0.0827
  229UNK    C01 2054  24.034   2.919   8.650 -0.4830 -0.1038 -0.0840
  229UNK    H02 2055  23.946   2.984   8.654 -0.6393 -0.3104 -0.1628
  229UNK    C03 2056  24.058   2.816   8.564 -0.1392 -0.2382  0.2917
  229UNK    C04 2057  24.071   2.678   8.604 -0.1619 -0.2544  0.3205
  229UNK    F05 2058  23.951   2.626   8.634 -0.0358  0.3000 -0.2513
  229UNK    F06 2059  24.115   2.607   8.495 -0.5696  0.4587  0.1313
  229UNK    F07 2060  24.156   2.650   8.706  0.1753  0.3740 -0.9788
  229UNK    H08 2061  24.120   2.835   8.478 -1.5249  3.3085 -0.0074
  230UNK    F00 2062  26.164   2.284   8.520  0.3162 -0.1572  0.3051
  230UNK    C01 2063  26.104   2.171   8.547  0.2793 -0.0854 -0.0071
  230UNK    H02 2064  25.995   2.170   8.537  0.5910  0.5996 -3.9680
  230UNK    C03 2065  26.169   2.054   8.562  0.5056 -0.6219 -0.0864
  230UNK    C04 2066  26.103   1.925   8.555 -0.1732  0.9735  0.0484
  230UNK    F05 2067  26.081   1.894   8.424  0.1352  0.5633  0.3676
  230UNK    F06 2068  26.167   1.817   8.618 -0.6320 -0.1686 -0.4526
  230UNK    F07 2069  25.975   1.934   8.608 -0.1355 -0.0845 -0.2980
  230UNK    H08 2070  26.234   2.059   8.649 -0.2946  3.3729  0.3911
  231UNK    F00 2071  23.476   2.784   8.666  0.6544 -0.4680  0.1809
  231UNK    C01 2072  23.540   2.662   8.646  0.1329 -0.3647  0.4399
  231UNK    H02 2073  23.506   2.579   8.709 -0.0376 -1.5895 -1.2178
  231UNK    C03 2074  23.649   2.664   8.566  0.0832 -0.4595 -0.5074
  231UNK    C04 2075  23.662   2.754   8.452  0.5559  0.0911  0.0811
  231UNK    F05 2076  23.757   2.711   8.364  0.5095 -0.2492  0.2435
  231UNK    F06 2077  23.548   2.751   8.387  0.0140 -0.0437 -0.2310
  231UNK    F07 2078  23.691   2.877   8.503 -0.1390 -0.2138 -0.9020
  231UNK    H08 2079  23.721   2.585   8.582 -1.1289 -1.6746 -0.9490
  232UNK    F00 2080  23.809   2.912   7.482 -0.9408  0.1928 -0.0070
  232UNK    C01 2081  23.845   2.881   7.610 -0.3611  0.4319  0.4133
  232UNK    H02 2082  23.913   2.956   7.650  0.2642 -0.6198  1.3487
  232UNK    C03 2083  23.794   2.778   7.670  0.5332 -0.2321 -0.1701
  232UNK    C04 2084  23.836   2.647   7.631 -0.6887  0.4793  0.0811
  232UNK    F05 2085  23.865   2.644   7.500  0.0049  0.0720  0.1371
  232UNK    F06 2086  23.943   2.621   7.703  0.0073  0.5342  0.1167
  232UNK    F07 2087  23.744   2.551   7.653  0.4804  0.8932 -0.1541
  232UNK    H08 2088  23.688   2.777   7.692  0.7143 -0.8937  0.6936
  233UNK    F00 2089  22.673   1.635   8.724 -0.2358  0.1178  0.3276
  233UNK    C01 2090  22.621   1.513   8.694  0.4597 -0.0204  0.3468
  233UNK    H02 2091  22.642   1.480   8.592  1.2567 -0.8978  0.7861
  233UNK    C03 2092  22.596   1.434   8.802 -0.1658 -0.3386  0.4624
  233UNK    C04 2093  22.562   1.294   8.799 -0.6288  0.0185  0.3445
  233UNK    F05 2094  22.667   1.219   8.777  0.2970 -0.4380  0.1397
  233UNK    F06 2095  22.528   1.247   8.920 -0.2299  0.5623 -0.0820
  233UNK    F07 2096  22.472   1.257   8.699 -0.2333  0.5285  0.3359
  233UNK    H08 2097  22.615   1.479   8.898 -2.8738  0.7011  0.5519
  234UNK    F00 2098  22.205   2.022   8.226 -0.2985 -0.3059  0.2508
  234UNK    C01 2099  22.284   2.060   8.327  0.3481  0.1704 -0.3227
  234UNK    H02 2100  22.360   2.132   8.300  1.4785 -1.1652 -0.7585
  234UNK    C03 2101  22.247   2.023   8.445 -0.2228  0.8465 -0.3417
  234UNK    C04 2102  22.266   2.112   8.562 -0.0475 -0.1917 -0.0653
  234UNK    F05 2103  22.181   2.216   8.566 -0.4518 -0.4475  0.4268
  234UNK    F06 2104  22.246   2.043   8.674 -0.1252 -0.2929  0.2805
  234UNK    F07 2105  22.395   2.153   8.579  0.1802  0.2339 -0.3906
  234UNK    H08 2106  22.249   1.918   8.473  2.3105  0.6316 -1.1716
  235UNK    F00 2107  24.987   2.185   9.738 -0.3342  0.2153 -0.4138
  235UNK    C01 2108  24.925   2.300   9.729  0.5943  0.7083 -0.9116
  235UNK    H02 2109  24.820   2.278   9.748  0.6277  1.9788  0.8657
  235UNK    C03 2110  24.984   2.412   9.761 -0.0288 -0.0484 -0.0079
  235UNK    C04 2111  25.052   2.490   9.651 -1.2354 -0.3851 -1.2621
  235UNK    F05 2112  25.151   2.568   9.697 -0.7949 -0.2690  0.1875
  235UNK    F06 2113  25.112   2.407   9.559  0.0320 -0.0833 -0.2938
  235UNK    F07 2114  24.955   2.555   9.582  0.0981  0.1084 -0.2838
  235UNK    H08 2115  25.013   2.431   9.864  2.0038 -0.3747 -0.4944
  236UNK    F00 2116  23.629   0.217   6.615 -0.1542 -0.0663  0.2456
  236UNK    C01 2117  23.520   0.294   6.587 -0.1453 -0.1978 -0.3073
  236UNK    H02 2118  23.471   0.248   6.501 -0.3768  2.0606 -1.4135
  236UNK    C03 2119  23.457   0.362   6.685  0.4454  0.2931 -0.4436
  236UNK    C04 2120  23.319   0.410   6.654  0.6269  0.3092 -0.3360
  236UNK    F05 2121  23.232   0.313   6.632 -0.2924  0.2553 -0.2956
  236UNK    F06 2122  23.273   0.479   6.759  0.0874 -0.1168 -0.1297
  236UNK    F07 2123  23.298   0.479   6.542 -0.4125 -0.2539  0.1487
  236UNK    H08 2124  23.509   0.411   6.765  1.1284  0.6107 -1.0734
  237UNK    F00 2125  24.101   1.237  10.408  0.2606 -0.6206 -0.1922
  237UNK    C01 2126  24.135   1.356  10.364  0.2462 -0.3030 -0.3777
  237UNK    H02 2127  24.089   1.435  10.424  2.1868  0.0549  0.6855
  237UNK    C03 2128  24.158   1.371  10.235 -0.2442 -0.2966  0.2735
  237UNK    C04 2129  24.238   1.484  10.172  0.4818  0.6170  0.6503
  237UNK    F05 2130  24.262   1.596  10.243 -0.3381 -0.3975 -0.3359
  237UNK    F06 2131  24.359   1.448  10.127 -0.1106 -0.0025 -0.5374
  237UNK    F07 2132  24.170   1.526  10.065 -0.1613 -0.0726  0.2141
  237UNK    H08 2133  24.095   1.325  10.161 -1.5038  0.7164  0.6870
  238UNK    F00 2134  24.025   0.785   8.361  0.3768  0.2588  0.2815
  238UNK    C01 2135  24.123   0.803   8.270 -0.2861  0.6576 -0.8781
  238UNK    H02 2136  24.206   0.850   8.322 -1.4536 -0.8411  2.5407
  238UNK    C03 2137  24.120   0.765   8.142 -0.3288 -0.3035 -0.2100
  238UNK    C04 2138  24.242   0.740   8.064 -0.6937  0.0913  0.5800
  238UNK    F05 2139  24.207   0.695   7.944  0.6110 -0.6397 -0.4631
  238UNK    F06 2140  24.323   0.852   8.049 -0.0046  0.2534 -0.0290
  238UNK    F07 2141  24.312   0.635   8.106 -0.0127  0.1642  0.4692
  238UNK    H08 2142  24.045   0.807   8.076 -0.6752 -1.3667 -0.5030
  239UNK    F00 2143  24.476   0.750   5.554  0.0137 -0.2094  0.4328
  239UNK    C01 2144  24.513   0.854   5.472  0.4881  0.4273 -0.1957
  239UNK    H02 2145  24.605   0.898   5.511  2.4886 -0.7975 -3.3229
  239UNK    C03 2146  24.415   0.927   5.416 -0.6406  0.0820 -0.4843
  239UNK    C04 2147  24.356   0.904   5.282  0.3609 -0.0425 -0.1417
  239UNK    F05 2148  24.445   0.903   5.184  0.1851  0.3696 -0.4803
  239UNK    F06 2149  24.305   0.777   5.277  0.2404 -0.0071  0.1320
  239UNK    F07 2150  24.265   0.995   5.252 -0.3139  0.8464 -0.3045
  239UNK    H08 2151  24.350   0.984   5.481 -1.6986 -0.4235 -1.0926
  240UNK    F00 2152  22.771   0.980   7.175 -0.3863  0.1896  0.8347
  240UNK    C01 2153  22.889   1.011   7.228  0.5084  0.2814  0.4577
  240UNK    H02 2154  22.974   0.975   7.170 -0.9753 -1.2359 -0.8529
  240UNK    C03 2155  22.890   1.096   7.330 -0.2709 -0.5775  0.5621
  240UNK    C04 2156  23.004   1.179   7.362 -0.0392  0.2368 -0.4912
  240UNK    F05 2157  22.991   1.254   7.477 -0.0800 -0.3220  0.4941
  240UNK    F06 2158  23.114   1.096   7.376  0.4625 -0.1397 -0.0942
  240UNK    F07 2159  23.052   1.257   7.258  0.3468  0.2629 -0.1573
  240UNK    H08 2160  22.871   1.047   7.425  0.6413  2.0331  2.1505
  241UNK    F00 2161  23.572   3.639   9.657  0.2673  0.2993 -0.2836
  241UNK    C01 2162  23.601   3.752   9.722  0.0163 -0.1212  0.4031
  241UNK    H02 2163  23.657   3.736   9.814 -0.0359  0.2099  0.4901
  241UNK    C03 2164  23.577   3.868   9.665  0.6246  0.2266 -0.0596
  241UNK    C04 2165  23.451   3.946   9.692  0.0066 -0.2232 -0.7475
  241UNK    F05 2166  23.422   4.027   9.588 -0.5979 -0.7424  0.0556
  241UNK    F06 2167  23.345   3.866   9.730  0.1665  0.1361  0.1566
  241UNK    F07 2168  23.473   4.028   9.796  0.5239 -0.0667  0.1545
  241UNK    H08 2169  23.646   3.920   9.601  0.0063  1.0814 -0.0485
  242UNK    F00 2170  24.915   2.663   7.928  0.1324  0.4306 -0.4668
  242UNK    C01 2171  24.954   2.557   8.003 -0.0932  0.6192 -0.4037
  242UNK    H02 2172  25.036   2.576   8.072 -0.4942 -1.2505  0.6269
  242UNK    C03 2173  24.930   2.440   7.945  0.0831  0.1560  0.2281
  242UNK    C04 2174  24.931   2.314   8.025  0.4915 -0.6644 -0.7487
  242UNK    F05 2175  24.967   2.205   7.954 -0.5902  0.5818  0.2265
  242UNK    F06 2176  25.023   2.322   8.126 -0.6114  0.3422 -0.1675
  242UNK    F07 2177  24.813   2.289   8.088 -0.2869  0.1235  0.3160
  242UNK    H08 2178  24.951   2.420   7.841  0.3690  0.7056  0.1741
  243UNK    F00 2179  23.313   4.178   7.556 -0.0500  0.0251  0.1200
  243UNK    C01 2180  23.351   4.299   7.590  0.4459  0.0754  0.0458
  243UNK    H02 2181  23.450   4.310   7.634  1.1568 -3.3585 -0.5405
  243UNK    C03 2182  23.255   4.391   7.560 -0.1425 -0.1979 -0.2232
  243UNK    C04 2183  23.281   4.530   7.571 -0.0551 -0.7653  0.0377
  243UNK    F05 2184  23.328   4.559   7.688 -0.1752 -0.0695  0.1360
  243UNK    F06 2185  23.371   4.576   7.479  0.1378 -0.0567 -0.3007
  243UNK    F07 2186  23.167   4.603   7.558  0.7385 -0.0820 -0.2989
  243UNK    H08 2187  23.153   4.355   7.560 -0.1406 -0.2038 -0.0116
  244UNK    F00 2188  23.694   5.181   8.560 -0.3995 -0.0967 -0.3628
  244UNK    C01 2189  23.592   5.153   8.644 -0.4105 -0.2364 -0.4331
  244UNK    H02 2190  23.610   5.126   8.748 -0.4496 -0.3031 -0.4455
  244UNK    C03 2191  23.465   5.139   8.592 -0.1448 -0.1679  0.3572
  244UNK    C04 2192  23.346   5.144   8.675 -0.4229  0.2617  0.4490
  244UNK    F05 2193  23.250   5.228   8.631  0.1422 -0.6068 -0.2551
  244UNK    F06 2194  23.302   5.014   8.665  0.0188 -0.6802  0.0468
  244UNK    F07 2195  23.354   5.167   8.808 -0.0379 -0.1833 -0.3241
  244UNK    H08 2196  23.452   5.107   8.490  0.8854 -0.6211  0.3551
  245UNK    F00 2197  24.044   0.299   5.853 -0.3291  0.1059  0.4510
  245UNK    C01 2198  24.158   0.368   5.848  0.2550 -0.1614  0.2424
  245UNK    H02 2199  24.223   0.321   5.774 -1.6457 -1.0069 -0.9217
  245UNK    C03 2200  24.177   0.467   5.932 -0.0534  0.1148  0.0956
  245UNK    C04 2201  24.092   0.585   5.931 -0.7187  0.3890 -0.1750
  245UNK    F05 2202  24.156   0.691   5.975 -0.1594  0.2287 -0.0215
  245UNK    F06 2203  24.057   0.620   5.806  0.1324 -0.1482 -0.4547
  245UNK    F07 2204  23.974   0.565   5.995 -0.2550  0.1997 -0.3620
  245UNK    H08 2205  24.229   0.451   6.025  1.2617  1.4514 -0.3779
  246UNK    F00 2206  17.659   3.371   8.889 -0.5586 -0.6230 -0.3045
  246UNK    C01 2207  17.675   3.243   8.910  0.2016  0.3051 -0.3217
  246UNK    H02 2208  17.776   3.211   8.882  0.2602  0.0245  0.1826
  246UNK    C03 2209  17.572   3.174   8.954  0.4500 -0.0027  0.5020
  246UNK    C04 2210  17.589   3.039   9.019  0.3206 -0.0884  1.2335
  246UNK    F05 2211  17.659   2.946   8.947  0.0569 -0.0110  0.3322
  246UNK    F06 2212  17.652   3.061   9.135 -0.0746  0.4956  0.7644
  246UNK    F07 2213  17.466   2.988   9.040 -0.6340  0.0365 -0.1780
  246UNK    H08 2214  17.492   3.229   9.002  0.9384 -0.1045  1.4480
  247UNK    F00 2215  24.196   2.292   9.560 -0.2230 -0.1298  0.5979
  247UNK    C01 2216  24.286   2.241   9.475 -0.2177 -0.7366  0.8114
  247UNK    H02 2217  24.385   2.240   9.520 -0.9445  1.0115  2.5482
  247UNK    C03 2218  24.241   2.190   9.358 -0.1065 -0.8565 -0.1673
  247UNK    C04 2219  24.194   2.272   9.241 -0.6169  0.1596 -0.2195
  247UNK    F05 2220  24.136   2.182   9.161 -0.0950 -0.8529 -0.0530
  247UNK    F06 2221  24.090   2.358   9.254  0.2810  0.1746 -0.4176
  247UNK    F07 2222  24.295   2.331   9.175 -0.1046  0.3107 -0.1927
  247UNK    H08 2223  24.264   2.089   9.329  0.1919 -0.9904  0.5096
  248UNK    F00 2224  22.609   1.858   8.007  0.4096 -0.2785 -0.2743
  248UNK    C01 2225  22.681   1.748   8.013 -0.9478 -0.0661  0.4751
  248UNK    H02 2226  22.761   1.744   7.939 -0.7161 -0.2335  0.7322
  248UNK    C03 2227  22.669   1.680   8.124  0.5234  0.2792  0.0893
  248UNK    C04 2228  22.639   1.737   8.255  0.1074 -0.7246 -0.6268
  248UNK    F05 2229  22.680   1.652   8.351 -0.6217  0.3879  0.6464
  248UNK    F06 2230  22.723   1.837   8.285 -0.2835  0.0550 -0.0734
  248UNK    F07 2231  22.513   1.779   8.283 -0.5656 -0.1330  0.3120
  248UNK    H08 2232  22.650   1.574   8.117 -1.9902  0.3152  4.2222
  249UNK    F00 2233  24.280   2.346   8.771  0.0054  0.2117  0.0868
  249UNK    C01 2234  24.299   2.238   8.848  0.2692  0.2907 -0.2975
  249UNK    H02 2235  24.207   2.184   8.871 -1.4203  1.8867 -3.0623
  249UNK    C03 2236  24.422   2.181   8.852  0.1067  0.6683  1.0645
  249UNK    C04 2237  24.465   2.066   8.945 -0.0993 -0.7158 -0.1934
  249UNK    F05 2238  24.409   2.086   9.066  0.0765  0.2184 -0.4939
  249UNK    F06 2239  24.418   1.944   8.903  0.5112  0.4744 -0.3866
  249UNK    F07 2240  24.602   2.055   8.960 -0.1887 -0.0535 -0.1669
  249UNK    H08 2241  24.494   2.193   8.773 -0.4424 -2.4543  0.0334
  250UNK    F00 2242  23.575   3.682   8.859 -0.2692 -0.0075  0.5169
  250UNK    C01 2243  23.690   3.634   8.900  0.0468 -0.2807  0.7102
  250UNK    H02 2244  23.699   3.536   8.853 -0.7552  0.1441 -0.3413
  250UNK    C03 2245  23.751   3.682   9.008 -0.0875  0.3494 -0.2954
  250UNK    C04 2246  23.744   3.827   9.041 -0.0895  0.0778  0.0992
  250UNK    F05 2247  23.817   3.875   9.140 -0.2421 -0.2087 -0.0513
  250UNK    F06 2248  23.798   3.896   8.941  0.3719 -0.2536  0.0865
  250UNK    F07 2249  23.618   3.875   9.053 -0.2994  0.1162 -0.5132
  250UNK    H08 2250  23.805   3.613   9.070  1.0018 -0.1805 -1.8003
  251UNK    F00 2251  24.319   4.571   5.204  0.3855  0.5540  0.0645
  251UNK    C01 2252  24.418   4.615   5.125 -0.5341 -0.2820  0.3168
  251UNK    H02 2253  24.384   4.676   5.041 -0.6739  0.5214  0.9481
  251UNK    C03 2254  24.542   4.567   5.141 -0.4925 -0.1530  0.6136
  251UNK    C04 2255  24.648   4.618   5.057 -0.3826  0.4965  0.4543
  251UNK    F05 2256  24.673   4.748   5.065 -0.3838 -0.3305 -0.3887
  251UNK    F06 2257  24.772   4.561   5.090 -0.4345  0.1173  0.4944
  251UNK    F07 2258  24.631   4.593   4.926  0.1692  0.0544 -0.1091
  251UNK    H08 2259  24.579   4.558   5.242  1.2410 -0.5280 -0.0367
  252UNK    F00 2260  24.104   4.920   7.048 -0.2642 -0.2369 -0.0453
  252UNK    C01 2261  24.193   4.873   6.956 -0.4012  0.4619  0.3202
  252UNK    H02 2262  24.155   4.780   6.912 -2.6779  1.6936 -0.4000
  252UNK    C03 2263  24.312   4.927   6.931 -0.4571  0.2593 -0.3968
  252UNK    C04 2264  24.434   4.906   7.008 -0.0292  0.0704 -0.0989
  252UNK    F05 2265  24.538   4.991   6.980  0.1709  0.1431 -0.0259
  252UNK    F06 2266  24.415   4.906   7.137  0.1394  0.3278  0.0166
  252UNK    F07 2267  24.481   4.784   6.969 -0.2852 -0.5507  0.6451
  252UNK    H08 2268  24.336   4.955   6.829 -1.4813 -0.1538 -0.7513
  253UNK    F00 2269  24.801   4.912   7.914  0.2346 -0.0761  0.3226
  253UNK    C01 2270  24.696   4.855   7.860 -0.1667  0.2799  0.3449
  253UNK    H02 2271  24.705   4.851   7.752  0.5602 -0.5192  0.4359
  253UNK    C03 2272  24.587   4.846   7.934 -0.1690 -0.0953 -0.0512
  253UNK    C04 2273  24.474   4.763   7.881 -0.2902  0.1541 -1.1437
  253UNK    F05 2274  24.459   4.771   7.750  0.0637 -0.0828 -0.1349
  253UNK    F06 2275  24.464   4.628   7.913 -0.2233  0.5556  0.3138
  253UNK    F07 2276  24.359   4.821   7.932  0.1451 -0.3915 -0.1849
  253UNK    H08 2277  24.550   4.929   7.992 -0.7207 -0.3207 -0.0713
  254UNK    F00 2278  24.707   2.620   9.667 -0.3838  0.2318  0.4835
  254UNK    C01 2279  24.602   2.700   9.647  0.1004 -0.5562 -0.3757
  254UNK    H02 2280  24.628   2.806   9.650 -0.2897 -0.4837  0.4425
  254UNK    C03 2281  24.482   2.651   9.609  0.3443  0.1319  0.5129
  254UNK    C04 2282  24.371   2.738   9.563  0.1332  0.3460  0.0050
  254UNK    F05 2283  24.343   2.831   9.662 -0.1821  0.4961 -0.5812
  254UNK    F06 2284  24.413   2.819   9.464 -0.5959  0.2460  0.2339
  254UNK    F07 2285  24.261   2.666   9.542 -0.1085 -0.2821 -0.0013
  254UNK    H08 2286  24.467   2.544   9.609 -1.4786  0.3726  2.0784
  255UNK    F00 2287  27.643   2.907  10.978 -0.1728 -0.1725 -0.0368
  255UNK    C01 2288  27.674   2.822  11.076  0.7993  0.3464  0.2175
  255UNK    H02 2289  27.725   2.736  11.032 -0.7619  0.8350 -2.6419
  255UNK    C03 2290  27.586   2.824  11.179 -0.4291  0.3007 -1.0682
  255UNK    C04 2291  27.584   2.710  11.273  0.2483 -0.2016  0.1002
  255UNK    F05 2292  27.466   2.721  11.343  0.1343 -0.3174 -0.0846
  255UNK    F06 2293  27.599   2.594  11.215 -0.0089 -0.6038 -0.5700
  255UNK    F07 2294  27.693   2.727  11.352  0.4697  0.2585  0.5386
  255UNK    H08 2295  27.526   2.909  11.207  0.4183  0.5070  0.1993
  256UNK    F00 2296  19.788   3.841   0.829 -0.1746 -0.4569  0.2679
  256UNK    C01 2297  19.696   3.824   0.924 -0.3983 -0.7060  0.6061
  256UNK    H02 2298  19.746   3.807   1.019  1.2887  1.8060  0.2248
  256UNK    C03 2299  19.571   3.863   0.881 -0.2699  0.1791 -0.0670
  256UNK    C04 2300  19.470   3.948   0.952  0.2321  0.2604  0.6262
  256UNK    F05 2301  19.474   3.940   1.089 -0.6040 -0.3524  0.2274
  256UNK    F06 2302  19.482   4.079   0.914 -0.0144 -0.2870 -0.5604
  256UNK    F07 2303  19.343   3.910   0.930  0.1910 -0.6524  0.1198
  256UNK    H08 2304  19.536   3.826   0.786 -1.6941 -0.1318  0.5722
  257UNK    F00 2305  24.507   3.661   9.805 -0.0284  0.2213  0.1842
  257UNK    C01 2306  24.464   3.663   9.680 -0.3524 -0.0617 -0.3459
  257UNK    H02 2307  24.455   3.765   9.642  1.4981  0.2429  0.0024
  257UNK    C03 2308  24.443   3.546   9.623 -0.2340 -0.4481  0.3063
  257UNK    C04 2309  24.416   3.524   9.486 -0.3011  0.2188  0.0081
  257UNK    F05 2310  24.530   3.474   9.429  0.5180 -0.1389  0.6711
  257UNK    F06 2311  24.315   3.435   9.460  0.6277 -0.0244  0.2255
  257UNK    F07 2312  24.385   3.638   9.417 -0.3274 -0.3619 -0.2579
  257UNK    H08 2313  24.452   3.453   9.677  1.5643 -0.8903 -0.7168
  258UNK    F00 2314  23.190   4.007  10.140  0.2578  0.3386  0.7076
  258UNK    C01 2315  23.304   3.945  10.170 -0.0713  0.6628  0.0811
  258UNK    H02 2316  23.308   3.905  10.272  1.6984 -1.0520 -0.6314
  258UNK    C03 2317  23.404   3.976  10.086 -0.1467 -0.5183 -0.3752
  258UNK    C04 2318  23.511   3.877  10.069  0.2758 -1.0417  0.0267
  258UNK    F05 2319  23.464   3.771  10.001 -0.1363 -0.6899  0.2328
  258UNK    F06 2320  23.614   3.925   9.997 -0.3103 -0.2450  0.2074
  258UNK    F07 2321  23.565   3.838  10.189 -0.2070  0.2437  0.3004
  258UNK    H08 2322  23.371   4.031   9.999 -0.6384 -0.1381  0.0493
  259UNK    F00 2323  24.211   1.685  10.967 -0.1908 -0.1216 -0.0357
  259UNK    C01 2324  24.288   1.600  10.899 -0.0341 -0.5198 -0.4271
  259UNK    H02 2325  24.235   1.509  10.871 -0.7295  0.6843 -3.2583
  259UNK    C03 2326  24.415   1.638  10.876  0.0894  0.3013 -0.0993
  259UNK    C04 2327  24.510   1.558  10.790  0.2957 -0.0660 -0.4395
  259UNK    F05 2328  24.512   1.423  10.814 -0.2011  0.0360 -0.1247
  259UNK    F06 2329  24.482   1.565  10.656  0.9093 -0.3691  0.3431
  259UNK    F07 2330  24.637   1.603  10.797  0.0482 -0.4754  0.1976
  259UNK    H08 2331  24.448   1.736  10.907 -1.2696  0.1080  2.0805
  260UNK    F00 2332  23.666   2.076   9.945  0.0628  0.3415  0.3176
  260UNK    C01 2333  23.767   2.155   9.976  0.4979  0.2846 -0.2900
  260UNK    H02 2334  23.858   2.101   9.951 -0.8417 -2.1661 -0.1224
  260UNK    C03 2335  23.745   2.286   9.986  0.0015  0.5374  0.2209
  260UNK    C04 2336  23.849   2.383   9.948 -0.5991  0.0000 -0.1101
  260UNK    F05 2337  23.971   2.336   9.977 -0.0429 -0.1727  0.0806
  260UNK    F06 2338  23.831   2.424   9.821  0.4806  0.0049 -0.5775
  260UNK    F07 2339  23.814   2.495  10.012  0.2018  0.2153  0.3149
  260UNK    H08 2340  23.650   2.332  10.009 -0.5510  0.0853 -1.1261
  261UNK    F00 2341  25.259   3.636  11.039 -0.4243  0.0489 -0.6458
  261UNK    C01 2342  25.368   3.708  11.086  0.2330 -0.5317  0.0169
  261UNK    H02 2343  25.438   3.647  11.142  0.9771  1.2013  1.0043
  261UNK    C03 2344  25.382   3.836  11.061  0.5196  0.1659 -1.0415
  261UNK    C04 2345  25.362   3.943  11.157 -0.1648 -1.0659  0.3437
  261UNK    F05 2346  25.258   3.928  11.239  0.3634  0.3079 -0.0838
  261UNK    F06 2347  25.480   3.954  11.230 -0.1018 -0.1151 -0.0424
  261UNK    F07 2348  25.354   4.060  11.087 -0.0499 -0.2803 -0.1721
  261UNK    H08 2349  25.395   3.870  10.959 -1.2308  0.0669 -1.3114
  262UNK    F00 2350  23.955   2.581   9.336  0.2719  0.1664 -0.3691
  262UNK    C01 2351  23.953   2.587   9.469  0.5891 -0.1062  0.4461
  262UNK    H02 2352  23.998   2.503   9.522  0.6223  0.5945  1.5254
  262UNK    C03 2353  23.943   2.714   9.510 -0.2304 -0.7977 -0.2401
  262UNK    C04 2354  23.815   2.771   9.556  0.3003 -0.5979 -0.2932
  262UNK    F05 2355  23.758   2.715   9.663 -0.2822  0.2775  0.2341
  262UNK    F06 2356  23.822   2.910   9.583  0.6343  0.0458 -0.1729
  262UNK    F07 2357  23.731   2.764   9.454 -0.4602 -0.4442  0.9166
  262UNK    H08 2358  24.028   2.778   9.491 -0.7473  0.4102  1.3800
  263UNK    F00 2359  22.257   4.525  11.726  0.0255 -0.0677  0.1382
  263UNK    C01 2360  22.218   4.456  11.617  0.3651 -0.0213 -0.2493
  263UNK    H02 2361  22.297   4.448  11.543  1.4917 -0.5409  0.9871
  263UNK    C03 2362  22.090   4.421  11.596  0.1261 -0.2194 -0.1967
  263UNK    C04 2363  22.051   4.313  11.506  0.3590  0.0243  0.7466
  263UNK    F05 2364  22.068   4.187  11.548 -0.1751 -0.7841  0.3184
  263UNK    F06 2365  21.916   4.332  11.479 -0.2325  0.2680  0.1232
  263UNK    F07 2366  22.093   4.334  11.378  0.5566  0.3490  0.4213
  263UNK    H08 2367  22.010   4.464  11.655  0.3091  1.0212 -0.8315
  264UNK    F00 2368  24.047   5.198  10.892 -0.0837  0.2802 -0.5870
  264UNK    C01 2369  24.065   5.293  10.982  0.5288  1.0223  0.2220
  264UNK    H02 2370  23.984   5.364  10.967 -1.1345 -0.4121  2.2847
  264UNK    C03 2371  24.191   5.302  11.026  0.6514  0.4807  0.2968
  264UNK    C04 2372  24.283   5.385  10.949  0.5218  0.3022  0.0161
  264UNK    F05 2373  24.251   5.387  10.822  0.3444  0.0235 -0.2891
  264UNK    F06 2374  24.274   5.513  10.986 -0.2350  0.1791  0.5392
  264UNK    F07 2375  24.411   5.332  10.962 -0.0845  0.3580  0.0265
  264UNK    H08 2376  24.246   5.220  11.069  2.3954  0.2435 -2.2558
  265UNK    F00 2377  26.059   2.809  11.460 -0.3626  0.0459 -0.5558
  265UNK    C01 2378  26.092   2.816  11.334  0.5820 -0.5505  0.5791
  265UNK    H02 2379  25.999   2.823  11.279 -0.1831 -0.7752  1.8263
  265UNK    C03 2380  26.214   2.860  11.312 -0.5420 -0.3353  0.4252
  265UNK    C04 2381  26.322   2.763  11.291  0.8711  0.0148 -0.4806
  265UNK    F05 2382  26.439   2.833  11.311 -0.1866 -0.4749  0.0524
  265UNK    F06 2383  26.320   2.662  11.383 -0.1410  0.2943 -0.3614
  265UNK    F07 2384  26.308   2.707  11.165  0.1750  0.1597 -0.5778
  265UNK    H08 2385  26.254   2.939  11.373  0.7770 -1.7031  1.3548
  266UNK    F00 2386  23.778   4.880   9.216 -0.2600  0.0281  0.1959
  266UNK    C01 2387  23.841   4.776   9.242  0.3407  0.5965  0.2728
  266UNK    H02 2388  23.874   4.789   9.345 -2.5985  1.0826  1.2126
  266UNK    C03 2389  23.868   4.675   9.160  0.0739  0.4170 -0.3957
  266UNK    C04 2390  23.992   4.669   9.082 -0.3704  0.0686 -0.2051
  266UNK    F05 2391  24.021   4.793   9.035 -0.8397  0.1429 -0.0086
  266UNK    F06 2392  24.104   4.638   9.155  1.1327  0.2117  0.2257
  266UNK    F07 2393  23.978   4.583   8.980 -0.1270 -0.1966 -0.3483
  266UNK    H08 2394  23.789   4.623   9.108 -1.2766  1.6039  0.4092
  267UNK    F00 2395  24.365   1.826  10.418  0.5558  0.0890 -0.2658
  267UNK    C01 2396  24.491   1.818  10.466  0.0982  0.5871  0.6996
  267UNK    H02 2397  24.498   1.827  10.575 -1.3538  1.6823  0.7128
  267UNK    C03 2398  24.587   1.848  10.384 -1.1521 -0.1351  0.5264
  267UNK    C04 2399  24.621   1.984  10.347  0.5881  0.2894  0.2113
  267UNK    F05 2400  24.659   2.058  10.456 -0.1452 -0.2367  0.4049
  267UNK    F06 2401  24.739   1.981  10.283 -0.1219  0.2353 -0.3502
  267UNK    F07 2402  24.528   2.053  10.282 -0.5202 -0.3744 -0.2316
  267UNK    H08 2403  24.652   1.770  10.347  0.4770  1.9376 -1.0754
  268UNK    F00 2404  25.241   3.904   9.429  0.0259  0.4168 -0.6646
  268UNK    C01 2405  25.129   3.837   9.407 -0.2935  0.3272  0.3207
  268UNK    H02 2406  25.135   3.746   9.347 -0.2270  0.3858  0.2377
  268UNK    C03 2407  25.036   3.851   9.501  0.3403 -0.5388  0.5006
  268UNK    C04 2408  24.972   3.978   9.533 -0.5262  0.3039 -0.1281
  268UNK    F05 2409  24.910   4.025   9.420 -0.1795 -0.9437 -0.0599
  268UNK    F06 2410  24.881   3.958   9.632  0.2787 -0.0889  0.1206
  268UNK    F07 2411  25.062   4.083   9.570 -0.3280 -0.5353  0.4635
  268UNK    H08 2412  25.019   3.783   9.583  0.9578 -1.9660 -0.5268
  269UNK    F00 2413  23.344   0.741   8.839 -0.1039 -0.3270 -0.1189
  269UNK    C01 2414  23.376   0.646   8.931 -0.1733  0.4325  0.1290
  269UNK    H02 2415  23.426   0.696   9.013  1.9396  0.1454 -0.9433
  269UNK    C03 2416  23.286   0.547   8.942  0.1159 -0.3888 -0.4581
  269UNK    C04 2417  23.252   0.463   9.053 -0.0016 -0.3985  0.5954
  269UNK    F05 2418  23.357   0.434   9.133  0.1519 -0.2272 -0.0633
  269UNK    F06 2419  23.143   0.498   9.120  0.1113  0.1553  0.7494
  269UNK    F07 2420  23.220   0.341   9.004 -0.3699  0.5993  0.0479
  269UNK    H08 2421  23.259   0.504   8.847  1.6382  0.7173 -1.4295
  270UNK    F00 2422  23.221   1.926   9.101 -0.2443 -0.0655  0.1211
  270UNK    C01 2423  23.218   2.058   9.059 -0.5577  0.5513 -0.5168
  270UNK    H02 2424  23.121   2.082   9.016 -0.6603  0.9337 -0.0684
  270UNK    C03 2425  23.306   2.146   9.113 -0.3395 -1.0774 -0.4442
  270UNK    C04 2426  23.271   2.278   9.171  0.0392  0.1033 -0.0413
  270UNK    F05 2427  23.255   2.252   9.300 -0.0032  0.0560 -0.2428
  270UNK    F06 2428  23.380   2.359   9.157 -0.3031  0.1352 -0.0039
  270UNK    F07 2429  23.167   2.341   9.109  0.4506 -0.1353 -0.8699
  270UNK    H08 2430  23.407   2.145   9.075 -0.4596  4.0019 -1.2277
  271UNK    F00 2431  25.338   4.647  11.024 -0.2790  0.1065  0.0531
  271UNK    C01 2432  25.304   4.716  10.915  1.3312  0.0260  0.5010
  271UNK    H02 2433  25.242   4.656  10.849 -0.1614  1.5253  0.4966
  271UNK    C03 2434  25.327   4.847  10.905 -0.3195 -0.0910 -0.8340
  271UNK    C04 2435  25.298   4.922  10.786 -0.5612  0.1205 -0.1450
  271UNK    F05 2436  25.176   4.965  10.803 -0.2774  0.2903  0.6961
  271UNK    F06 2437  25.386   5.024  10.779 -0.2053 -0.3227 -0.5167
  271UNK    F07 2438  25.316   4.843  10.673 -0.2838 -0.3598  0.5320
  271UNK    H08 2439  25.360   4.910  10.987  1.8865 -3.7019  1.1943
  272UNK    F00 2440  25.308   4.342  11.326 -0.2728 -0.0905  0.0879
  272UNK    C01 2441  25.214   4.263  11.376 -0.5371  0.3853 -0.1351
  272UNK    H02 2442  25.255   4.177  11.429  0.0086  1.7587  1.7695
  272UNK    C03 2443  25.087   4.295  11.344 -0.5984 -0.5453 -0.4886
  272UNK    C04 2444  25.024   4.232  11.226 -0.1141 -0.3737  0.6890
  272UNK    F05 2445  25.098   4.265  11.119  0.2714  0.5328 -0.4085
  272UNK    F06 2446  25.019   4.097  11.229 -0.3621 -0.0400  0.1759
  272UNK    F07 2447  24.898   4.281  11.194 -0.2261  0.0735 -0.4769
  272UNK    H08 2448  25.057   4.399  11.351  1.3840  0.0248 -0.0448
  273UNK    F00 2449  26.929   1.513  10.668 -0.1265  0.6908  0.4227
  273UNK    C01 2450  27.020   1.593  10.604  0.3288  0.4915  0.4577
  273UNK    H02 2451  27.060   1.548  10.512 -1.3868  0.1197 -0.1239
  273UNK    C03 2452  27.028   1.718  10.649 -0.9433 -0.1720 -0.1349
  273UNK    C04 2453  27.109   1.741  10.767  0.1388 -1.0246 -0.4973
  273UNK    F05 2454  27.100   1.872  10.809  0.7951  0.3552  0.0778
  273UNK    F06 2455  27.072   1.668  10.876  0.1772 -0.1298 -0.1240
  273UNK    F07 2456  27.240   1.697  10.756 -0.0770 -0.2634 -0.2185
  273UNK    H08 2457  26.945   1.787  10.652 -0.8407 -0.0820  0.5630
  274UNK    F00 2458  23.481   0.945   6.335  0.3579 -0.1183  0.3554
  274UNK    C01 2459  23.448   1.054   6.258 -0.2999  0.2194  0.3574
  274UNK    H02 2460  23.343   1.057   6.227  0.0367 -1.5449 -1.0151
  274UNK    C03 2461  23.530   1.156   6.261 -0.7639 -0.1822  0.2609
  274UNK    C04 2462  23.510   1.276   6.168 -0.3940 -0.3225 -0.1403
  274UNK    F05 2463  23.407   1.345   6.208  0.3738 -0.1961 -0.4760
  274UNK    F06 2464  23.626   1.346   6.165 -0.0390 -0.3067 -0.2886
  274UNK    F07 2465  23.493   1.220   6.046  0.5499  0.0964  0.3850
  274UNK    H08 2466  23.577   1.178   6.356  0.6850  1.6641 -0.8298
  275UNK    F00 2467  23.278   3.949   7.928  0.8091  0.2431  0.1163
  275UNK    C01 2468  23.179   4.016   7.990  0.5065  0.1158  0.8043
  275UNK    H02 2469  23.083   3.963   7.983 -0.3231  1.5200  1.3628
  275UNK    C03 2470  23.204   4.129   8.047  0.1102  0.9281  0.5130
  275UNK    C04 2471  23.256   4.247   7.971  0.4270 -0.4731 -0.9021
  275UNK    F05 2472  23.344   4.212   7.874 -0.0594  0.1567  0.4965
  275UNK    F06 2473  23.161   4.315   7.903 -0.0130 -0.1928  0.0152
  275UNK    F07 2474  23.330   4.332   8.045 -0.1563 -0.0241 -0.4050
  275UNK    H08 2475  23.233   4.133   8.151 -0.7598  0.2093  0.7887
  276UNK    F00 2476  22.556   3.971  10.138  0.1595  0.3057 -0.4500
  276UNK    C01 2477  22.610   4.020  10.026  0.0332 -0.1262 -0.4937
  276UNK    H02 2478  22.534   4.042   9.950 -1.7398 -1.0250  0.9910
  276UNK    C03 2479  22.734   4.001   9.991 -0.3480 -0.3972  0.2783
  276UNK    C04 2480  22.792   4.097   9.898 -0.0473  0.4801 -1.1399
  276UNK    F05 2481  22.855   4.194   9.966  0.1719 -0.3450 -0.1346
  276UNK    F06 2482  22.888   4.026   9.831 -0.1771  0.0838  0.0267
  276UNK    F07 2483  22.705   4.161   9.808  0.1926  0.3126 -0.3026
  276UNK    H08 2484  22.801   3.966  10.068  0.6005 -2.3489 -1.3831
  277UNK    F00 2485  23.982   4.971   8.112 -0.5573 -0.3246  0.2013
  277UNK    C01 2486  24.050   4.869   8.069 -0.3073 -0.2321  0.1729
  277UNK    H02 2487  24.126   4.898   7.996  0.1910  1.6826  1.4135
  277UNK    C03 2488  24.013   4.739   8.092  0.0403  0.6234  0.3079
  277UNK    C04 2489  24.000   4.691   8.228  0.1643  0.1899 -0.4524
  277UNK    F05 2490  23.950   4.564   8.227  0.5101 -0.1631 -0.0440
  277UNK    F06 2491  24.123   4.702   8.282 -0.0542  0.0224  0.3174
  277UNK    F07 2492  23.917   4.769   8.300  0.0849  0.5402  0.3320
  277UNK    H08 2493  24.028   4.666   8.014 -0.8236 -0.9276  1.5740
  278UNK    F00 2494  24.491   5.201   8.751 -0.1137  0.4077 -0.0029
  278UNK    C01 2495  24.476   5.156   8.625  0.1895 -0.3048  0.7303
  278UNK    H02 2496  24.430   5.058   8.618 -0.8498  0.2816 -0.9982
  278UNK    C03 2497  24.477   5.253   8.536  0.6084  0.8698  0.3657
  278UNK    C04 2498  24.429   5.389   8.566 -0.1906 -0.2456 -0.1960
  278UNK    F05 2499  24.515   5.441   8.656  0.0535  0.5056  0.5957
  278UNK    F06 2500  24.440   5.464   8.455 -0.0462 -0.2806  0.3213
  278UNK    F07 2501  24.299   5.396   8.608 -0.1843 -0.1674  0.0243
  278UNK    H08 2502  24.525   5.240   8.439  2.0837  1.2037  1.0308
  279UNK    F00 2503  24.170   0.842   7.649 -0.0977 -0.0937 -0.0464
  279UNK    C01 2504  24.112   0.898   7.755  0.5301  0.1021 -0.6584
  279UNK    H02 2505  24.179   0.903   7.841 -0.2385 -0.9269  0.0067
  279UNK    C03 2506  24.007   0.973   7.730  0.3170 -0.2503 -1.0129
  279UNK    C04 2507  23.947   1.052   7.841  0.5126 -0.4604  0.1108
  279UNK    F05 2508  23.951   0.979   7.955 -0.2246  0.3847  0.1425
  279UNK    F06 2509  24.014   1.165   7.868 -0.0847 -0.1824  0.2707
  279UNK    F07 2510  23.817   1.085   7.804  0.3607  0.0036 -0.2690
  279UNK    H08 2511  23.937   0.933   7.658 -1.7651  0.9318  0.3046
  280UNK    F00 2512  22.786   4.873  10.042  0.1272 -0.5582  0.3970
  280UNK    C01 2513  22.917   4.844  10.059 -0.2565 -0.1355 -0.2199
  280UNK    H02 2514  22.941   4.739  10.076 -0.9309 -0.0021  1.7140
  280UNK    C03 2515  23.002   4.942  10.036 -0.1394 -0.5025 -0.3224
  280UNK    C04 2516  23.023   5.063  10.117 -0.2946 -1.0394  0.1923
  280UNK    F05 2517  23.140   5.070  10.187 -0.1344  0.7394  0.0446
  280UNK    F06 2518  23.012   5.173  10.036 -0.0671 -0.3247 -0.0611
  280UNK    F07 2519  22.926   5.079  10.208  0.0936 -0.7172  0.1926
  280UNK    H08 2520  23.092   4.933   9.977 -0.3517  0.2501 -0.7638
  281UNK    F00 2521  24.008   4.041   5.349  0.1074  0.2568  0.3035
  281UNK    C01 2522  23.945   4.117   5.436  0.1244  0.0821 -0.0938
  281UNK    H02 2523  23.850   4.163   5.409  0.2649  1.2603  1.3838
  281UNK    C03 2524  23.979   4.097   5.564  0.2742  0.4717  0.1681
  281UNK    C04 2525  23.930   4.173   5.680  0.8214 -0.0296  0.0938
  281UNK    F05 2526  23.810   4.132   5.719 -0.0850 -0.1384 -0.5008
  281UNK    F06 2527  24.014   4.163   5.785  0.1134 -0.6002 -0.3737
  281UNK    F07 2528  23.912   4.307   5.648 -0.0592 -0.3404 -0.2572
  281UNK    H08 2529  24.022   4.002   5.593 -0.1009  0.7299  1.5655
  282UNK    F00 2530  24.497   0.616   4.328  0.7081  0.8449  0.1160
  282UNK    C01 2531  24.420   0.728   4.352  0.2028  0.1607  0.5847
  282UNK    H02 2532  24.438   0.765   4.453 -0.4180  0.1436  0.7022
  282UNK    C03 2533  24.406   0.813   4.250 -0.3486 -0.1706  0.2401
  282UNK    C04 2534  24.522   0.854   4.166 -0.1187 -0.3068  0.6159
  282UNK    F05 2535  24.639   0.873   4.229 -0.0637  0.0381  0.0344
  282UNK    F06 2536  24.544   0.772   4.063 -0.4467 -0.1547 -0.0651
  282UNK    F07 2537  24.491   0.979   4.111 -0.1781 -0.1415  0.4620
  282UNK    H08 2538  24.332   0.891   4.246 -0.7320 -0.6193 -2.7048
  283UNK    F00 2539  23.407   3.098   7.956 -0.6457  0.0338 -0.0859
  283UNK    C01 2540  23.457   3.158   8.064  0.2211 -0.3923 -0.4298
  283UNK    H02 2541  23.447   3.265   8.050 -1.9353 -0.5315 -0.1930
  283UNK    C03 2542  23.503   3.094   8.175 -0.0839  0.6100  0.5853
  283UNK    C04 2543  23.408   3.010   8.252 -0.3746  0.5476  0.5728
  283UNK    F05 2544  23.282   3.051   8.238  0.2511  0.1034  0.3436
  283UNK    F06 2545  23.417   2.889   8.204  0.0504 -0.0960 -0.2777
  283UNK    F07 2546  23.445   3.001   8.382  0.1599  0.2233  0.2186
  283UNK    H08 2547  23.608   3.090   8.197  0.0558 -1.2261 -0.2660
  284UNK    F00 2548  22.778   3.579   7.681  0.2838 -0.1393 -0.2071
  284UNK    C01 2549  22.803   3.713   7.662  0.5918  0.2088 -0.4155
  284UNK    H02 2550  22.887   3.715   7.592 -0.6372  1.7450 -1.8852
  284UNK    C03 2551  22.696   3.792   7.655 -0.0576  0.1985 -0.5941
  284UNK    C04 2552  22.696   3.937   7.645 -0.4218  0.1982  0.4785
  284UNK    F05 2553  22.571   3.990   7.658  0.4879 -0.2866 -0.2051
  284UNK    F06 2554  22.784   3.990   7.739 -0.2357  0.1586 -0.0670
  284UNK    F07 2555  22.748   3.973   7.527  0.1427  0.4370  0.2597
  284UNK    H08 2556  22.600   3.757   7.692 -1.0154  1.5889 -1.6766
  285UNK    F00 2557  24.004   4.649   6.139  0.1698  0.1270 -0.2278
  285UNK    C01 2558  23.913   4.608   6.050  0.6250  0.6420  0.8345
  285UNK    H02 2559  23.828   4.551   6.086  0.2510 -0.1396 -1.2411
  285UNK    C03 2560  23.949   4.617   5.919 -0.4671 -0.2139  0.1578
  285UNK    C04 2561  23.858   4.617   5.812 -0.0482  0.0993 -0.9514
  285UNK    F05 2562  23.807   4.740   5.782  0.6070 -0.0221 -0.2984
  285UNK    F06 2563  23.903   4.572   5.696  0.0042  0.1827 -0.1778
  285UNK    F07 2564  23.741   4.546   5.848 -0.6156  0.1292  0.1858
  285UNK    H08 2565  24.050   4.645   5.890 -0.6701  1.4083  0.9482
  286UNK    F00 2566  24.498   4.788   6.599  0.1492  0.0218 -0.0138
  286UNK    C01 2567  24.464   4.882   6.512 -0.1360 -0.4669 -0.2057
  286UNK    H02 2568  24.430   4.837   6.418 -1.3858 -2.1868  1.0302
  286UNK    C03 2569  24.505   5.003   6.542 -0.7775 -0.3778 -0.3815
  286UNK    C04 2570  24.429   5.126   6.496 -0.3504 -0.0491  0.2654
  286UNK    F05 2571  24.396   5.103   6.366 -0.4122  0.5415 -0.1044
  286UNK    F06 2572  24.301   5.138   6.542  0.6744  0.0604 -0.3955
  286UNK    F07 2573  24.501   5.235   6.514 -0.1739 -0.3589 -0.2805
  286UNK    H08 2574  24.547   5.015   6.641 -1.8062 -2.5741  0.3356
  287UNK    F00 2575  23.876   3.368   9.038 -0.2086  0.1110  0.1359
  287UNK    C01 2576  23.926   3.279   9.131  0.2936  0.1002  0.8501
  287UNK    H02 2577  23.959   3.327   9.223  1.3544  2.1035 -0.5335
  287UNK    C03 2578  23.970   3.160   9.089  0.4931 -0.2040 -0.9602
  287UNK    C04 2579  23.895   3.057   9.014  0.7550  0.0387 -0.3727
  287UNK    F05 2580  23.866   3.083   8.889 -0.3411  0.5464 -0.0446
  287UNK    F06 2581  23.960   2.941   8.986 -0.1426 -0.1837 -0.2205
  287UNK    F07 2582  23.793   3.007   9.079  0.2159 -0.2765 -0.3092
  287UNK    H08 2583  24.070   3.131   9.116  0.6184  0.9996 -0.0410
  288UNK    F00 2584  25.014   4.123   4.016 -0.2387  0.3056 -0.2238
  288UNK    C01 2585  25.107   4.067   4.101 -0.7635  0.2152  0.4106
  288UNK    H02 2586  25.160   4.141   4.162  1.2578 -1.8099  1.1708
  288UNK    C03 2587  25.141   3.936   4.087 -0.3272 -0.7876  0.2887
  288UNK    C04 2588  25.221   3.867   4.193 -0.7614  0.1638  0.2768
  288UNK    F05 2589  25.285   3.753   4.152 -0.0597 -0.1722 -0.1277
  288UNK    F06 2590  25.326   3.942   4.234 -0.3053 -0.5438 -0.0706
  288UNK    F07 2591  25.142   3.839   4.304 -0.3163 -0.3701 -0.1078
  288UNK    H08 2592  25.090   3.872   4.017  0.1046 -1.6293  0.7420
  289UNK    F00 2593  23.823   1.129   5.332  0.0924 -0.1504 -0.1398
  289UNK    C01 2594  23.760   1.093   5.221  0.1154 -0.2120  0.1755
  289UNK    H02 2595  23.812   1.137   5.135 -0.1364  1.5380  0.9093
  289UNK    C03 2596  23.644   1.035   5.232 -0.5507 -0.4366 -0.0488
  289UNK    C04 2597  23.634   0.902   5.289  0.4317 -0.0018 -0.3971
  289UNK    F05 2598  23.528   0.832   5.248 -0.2605 -0.9384  0.1478
  289UNK    F06 2599  23.738   0.819   5.273 -0.0969  0.1118 -0.2670
  289UNK    F07 2600  23.609   0.910   5.421 -0.2777 -0.1655 -0.2155
  289UNK    H08 2601  23.556   1.097   5.238  0.5192  1.0482  0.8422
  290UNK    F00 2602  27.138   3.552   4.067 -0.1355  0.2364  0.2461
  290UNK    C01 2603  27.234   3.643   4.099 -0.0311  0.2818  0.1865
  290UNK    H02 2604  27.225   3.727   4.029 -1.7137 -1.3453 -1.6217
  290UNK    C03 2605  27.295   3.624   4.210 -0.1455  0.4523  0.1271
  290UNK    C04 2606  27.235   3.583   4.341  0.3573 -0.2616 -0.2993
  290UNK    F05 2607  27.317   3.614   4.443  0.3338  0.1517 -0.0602
  290UNK    F06 2608  27.124   3.657   4.370 -0.1887  0.0449 -0.2173
  290UNK    F07 2609  27.223   3.449   4.360 -0.0941  0.0852  0.1254
  290UNK    H08 2610  27.393   3.670   4.214 -0.0666  0.1362  2.3664
  291UNK    F00 2611  25.851   1.904   3.802  0.1993 -0.3339 -0.2720
  291UNK    C01 2612  25.892   1.929   3.679 -0.2535 -0.0235 -0.3151
  291UNK    H02 2613  25.810   1.959   3.613 -0.6813 -0.2314  0.1214
  291UNK    C03 2614  26.021   1.926   3.642  0.1755  0.6338 -0.2109
  291UNK    C04 2615  26.080   2.004   3.529 -0.2205  0.4587  0.1344
  291UNK    F05 2616  26.204   1.952   3.494  0.2507 -0.0402 -0.1639
  291UNK    F06 2617  26.015   2.007   3.414  0.8947 -0.7783  0.5482
  291UNK    F07 2618  26.092   2.136   3.567  0.2843 -0.2328  0.1556
  291UNK    H08 2619  26.075   1.834   3.656 -0.6142  0.5540  2.8241
  292UNK    F00 2620  29.410   4.701   6.715  0.1718  0.5493 -0.1026
  292UNK    C01 2621  29.375   4.576   6.695  0.1247 -0.3354 -0.4032
  292UNK    H02 2622  29.355   4.532   6.793  1.2043 -0.1288 -0.0846
  292UNK    C03 2623  29.416   4.501   6.593  0.1937  0.3464  0.2301
  292UNK    C04 2624  29.543   4.433   6.595 -0.3338 -0.1729 -0.0661
  292UNK    F05 2625  29.549   4.353   6.704 -0.0480 -0.0790  0.0468
  292UNK    F06 2626  29.550   4.341   6.491 -0.1985  0.3069  0.1438
  292UNK    F07 2627  29.653   4.517   6.584 -0.1686 -0.4785  0.6506
  292UNK    H08 2628  29.347   4.441   6.535  0.0583  0.5856  0.1449
  293UNK    F00 2629  24.845   0.040   3.521  0.6185  0.1035  0.6234
  293UNK    C01 2630  24.720  -0.009   3.540  0.1027 -0.1518  0.7996
  293UNK    H02 2631  24.690  -0.083   3.466 -0.6284 -1.9483  2.8473
  293UNK    C03 2632  24.650   0.023   3.651  0.9510 -0.0686 -0.9660
  293UNK    C04 2633  24.520  -0.044   3.670 -0.0884  0.4561 -1.0391
  293UNK    F05 2634  24.441  -0.030   3.560  0.3050  0.2569  0.0062
  293UNK    F06 2635  24.538  -0.180   3.687 -0.0698 -0.3604 -0.1838
  293UNK    F07 2636  24.455   0.014   3.773  0.0640  0.2625 -0.2587
  293UNK    H08 2637  24.679   0.098   3.723 -0.1874  0.6239 -1.1999
  294UNK    F00 2638  27.744   0.737   5.172 -0.7199  0.6340  0.1282
  294UNK    C01 2639  27.611   0.741   5.172  0.7079 -0.2939 -0.0391
  294UNK    H02 2640  27.569   0.736   5.072 -2.4866  0.2016  1.2112
  294UNK    C03 2641  27.538   0.714   5.280  0.3380 -0.7180 -0.2866
  294UNK    C04 2642  27.396   0.675   5.273 -0.1049  0.4284  0.1837
  294UNK    F05 2643  27.321   0.728   5.170  0.0399  0.0204 -0.1008
  294UNK    F06 2644  27.376   0.539   5.273 -0.5842 -0.3477  0.1965
  294UNK    F07 2645  27.333   0.718   5.381 -0.0370  0.2027  0.1378
  294UNK    H08 2646  27.558   0.741   5.382  0.6606 -0.1637 -0.4936
  295UNK    F00 2647  23.137   2.061   6.836  0.3217 -0.2181 -0.4257
  295UNK    C01 2648  23.222   2.058   6.938  0.2206  0.0783 -0.3969
  295UNK    H02 2649  23.212   2.148   6.999  0.6746 -0.2493  0.1700
  295UNK    C03 2650  23.299   1.953   6.959 -0.4662 -0.2387 -0.6203
  295UNK    C04 2651  23.436   1.954   6.896  0.8680 -1.1586 -0.4392
  295UNK    F05 2652  23.519   1.888   6.970 -0.5996 -0.6861 -0.4436
  295UNK    F06 2653  23.419   1.876   6.785 -0.0557 -0.2855  0.0440
  295UNK    F07 2654  23.488   2.079   6.862 -0.4897 -0.1199  0.4610
  295UNK    H08 2655  23.248   1.858   6.950 -0.9396 -0.6204  4.7518
  296UNK    F00 2656  26.749   3.062  14.103 -0.0483  0.1443 -0.5331
  296UNK    C01 2657  26.838   3.058  14.004 -0.0641  0.7536 -0.3253
  296UNK    H02 2658  26.923   3.120  14.032 -0.5778  1.0569  0.5949
  296UNK    C03 2659  26.819   2.975  13.905  0.2147 -0.4595 -0.6706
  296UNK    C04 2660  26.936   2.915  13.842  0.3111 -1.1589  0.0086
  296UNK    F05 2661  26.896   2.841  13.740  0.0038 -0.0946  0.2669
  296UNK    F06 2662  27.025   2.995  13.785  0.2062  0.1405  0.5180
  296UNK    F07 2663  26.995   2.839  13.938  0.2872  0.1806  0.8840
  296UNK    H08 2664  26.730   2.913  13.899  0.5391 -1.3586  2.6737
  297UNK    F00 2665  26.457   3.966   3.846  0.5336  0.5220 -0.3147
  297UNK    C01 2666  26.410   4.099   3.868 -0.0608  0.3409 -0.1943
  297UNK    H02 2667  26.305   4.102   3.894 -0.4175 -2.4465 -1.2413
  297UNK    C03 2668  26.494   4.196   3.839 -0.3025  0.2541  0.0810
  297UNK    C04 2669  26.450   4.333   3.873 -0.6918 -0.0576  0.1054
  297UNK    F05 2670  26.552   4.416   3.864  0.1847 -0.2214  0.1551
  297UNK    F06 2671  26.362   4.377   3.777  0.5005  0.0489 -0.5479
  297UNK    F07 2672  26.390   4.355   3.990  0.3673 -0.1710 -0.3387
  297UNK    H08 2673  26.563   4.176   3.759  1.0764 -0.2800  1.3781
  298UNK    F00 2674  27.099   1.184   3.261 -0.0561 -0.0032 -0.1014
  298UNK    C01 2675  26.980   1.160   3.317 -0.1383 -0.4363  0.2968
  298UNK    H02 2676  26.900   1.115   3.259 -0.1166 -1.6969  1.2127
  298UNK    C03 2677  26.984   1.148   3.451 -0.0326 -0.2216 -0.8824
  298UNK    C04 2678  26.891   1.084   3.541 -0.2281  0.6826 -0.0400
  298UNK    F05 2679  26.903   0.949   3.526  0.1374 -0.3207  0.0227
  298UNK    F06 2680  26.914   1.126   3.668  0.7360 -0.3422  0.2378
  298UNK    F07 2681  26.767   1.114   3.499 -0.3020 -0.1549 -0.4278
  298UNK    H08 2682  27.081   1.150   3.498 -0.6509 -2.7211  0.6125
  299UNK    F00 2683  25.027   0.969   4.064 -0.1994  0.3918 -0.0138
  299UNK    C01 2684  25.161   0.953   4.065 -0.1221 -0.4867  0.3505
  299UNK    H02 2685  25.206   1.039   4.015 -1.0271  0.4210  1.0772
  299UNK    C03 2686  25.222   0.855   4.127 -0.5326 -0.1852  0.5193
  299UNK    C04 2687  25.363   0.840   4.159 -0.3995 -0.0592 -0.3079
  299UNK    F05 2688  25.393   0.707   4.182 -0.0077 -0.3141  0.3869
  299UNK    F06 2689  25.431   0.876   4.049 -0.4235  0.5361  0.3944
  299UNK    F07 2690  25.400   0.910   4.270  0.5057 -0.0554 -0.8990
  299UNK    H08 2691  25.174   0.762   4.155  1.6168 -1.7049 -0.6719
  300UNK    F00 2692  24.988   3.033   4.512 -0.2034  0.0198 -0.2285
  300UNK    C01 2693  25.000   2.933   4.427 -0.4055 -0.5682  0.5746
  300UNK    H02 2694  24.930   2.943   4.345  2.1711 -1.5146 -1.8237
  300UNK    C03 2695  25.037   2.824   4.494 -0.2183  0.0851 -1.2087
  300UNK    C04 2696  25.106   2.714   4.432 -0.5602  0.0476  0.1396
  300UNK    F05 2697  25.240   2.750   4.427  0.3143 -0.6447  0.7989
  300UNK    F06 2698  25.107   2.598   4.508  0.1462 -0.1179  0.2486
  300UNK    F07 2699  25.067   2.692   4.303 -0.0434  0.3754  0.3416
  300UNK    H08 2700  25.051   2.834   4.601 -0.5436 -0.3044 -1.1289
  301UNK    F00 2701  26.838   2.118   4.654  0.1875 -0.0580 -0.0975
  301UNK    C01 2702  26.748   2.168   4.576  0.1962  0.1393 -0.8088
  301UNK    H02 2703  26.648   2.173   4.621 -0.2532 -0.6213 -1.7049
  301UNK    C03 2704  26.774   2.196   4.450  0.0333  0.3187  0.8127
  301UNK    C04 2705  26.897   2.276   4.405  0.3222 -0.0685  0.0897
  301UNK    F05 2706  26.888   2.300   4.275  0.4128  0.1795 -0.1239
  301UNK    F06 2707  26.902   2.394   4.470  0.6848 -0.1241 -0.1039
  301UNK    F07 2708  27.010   2.219   4.448  0.0850  0.1910 -0.0901
  301UNK    H08 2709  26.753   2.117   4.379  0.4837  1.5789 -0.7609
  302UNK    F00 2710  20.701   0.981   2.554  0.1251  0.3740 -0.1612
  302UNK    C01 2711  20.778   1.032   2.456  0.1190 -0.3187 -0.0285
  302UNK    H02 2712  20.874   0.981   2.463 -0.5787 -2.1195 -2.6214
  302UNK    C03 2713  20.719   1.057   2.340  0.1508  0.5782 -0.1143
  302UNK    C04 2714  20.767   1.011   2.207  0.1152  0.5598  0.0330
  302UNK    F05 2715  20.713   1.068   2.102 -0.1030 -0.6354 -0.4040
  302UNK    F06 2716  20.900   1.041   2.195 -0.5056  0.3997  0.6535
  302UNK    F07 2717  20.764   0.879   2.189 -0.1129 -0.2495  0.0728
  302UNK    H08 2718  20.611   1.056   2.348  0.2056  0.6917  0.6456
  303UNK    F00 2719  27.847   1.408   0.920  0.4123  0.2104  0.0514
  303UNK    C01 2720  27.939   1.319   0.874  0.2085 -0.1179 -0.6290
  303UNK    H02 2721  27.995   1.280   0.959 -2.3637  0.4464  1.4017
  303UNK    C03 2722  27.897   1.248   0.774 -0.1023 -0.5042  0.1406
  303UNK    C04 2723  27.973   1.137   0.717 -0.3219 -0.8756  0.7431
  303UNK    F05 2724  28.108   1.147   0.725 -0.5239  0.1167 -1.0804
  303UNK    F06 2725  27.948   1.015   0.767 -0.0783 -0.1868 -0.5576
  303UNK    F07 2726  27.943   1.126   0.584 -0.3826  0.1802 -0.2332
  303UNK    H08 2727  27.797   1.257   0.736 -1.1329 -1.8366  2.4330
  304UNK    F00 2728  26.412   3.345   5.870 -0.2063 -0.1398 -0.1211
  304UNK    C01 2729  26.374   3.279   5.761  0.2936 -0.1007 -0.2107
  304UNK    H02 2730  26.392   3.174   5.787 -0.1341  0.4418  2.4226
  304UNK    C03 2731  26.260   3.307   5.710 -0.0022  0.3849 -0.2269
  304UNK    C04 2732  26.185   3.238   5.606  0.7878 -0.7201 -0.6403
  304UNK    F05 2733  26.083   3.168   5.654  0.0560  0.3952 -0.1766
  304UNK    F06 2734  26.124   3.332   5.532 -0.0132  0.1128  0.4675
  304UNK    F07 2735  26.270   3.152   5.543  0.1829 -0.3425 -0.2563
  304UNK    H08 2736  26.221   3.407   5.720  1.0457  1.1397 -3.2348
  305UNK    F00 2737  26.763   1.821   5.931  0.0183  0.2681 -0.0974
  305UNK    C01 2738  26.840   1.920   5.962  0.2934 -0.0980 -0.1434
  305UNK    H02 2739  26.874   1.914   6.066 -1.4311 -3.2559  0.2876
  305UNK    C03 2740  26.835   2.028   5.881  0.7865  0.9017 -0.0240
  305UNK    C04 2741  26.932   2.138   5.881  0.0229 -0.4514  0.4074
  305UNK    F05 2742  26.910   2.227   5.791  0.2087 -0.1581  0.3018
  305UNK    F06 2743  26.942   2.204   6.000  0.7089  0.2311  0.4618
  305UNK    F07 2744  27.056   2.091   5.850  0.0293 -0.2337  0.6054
  305UNK    H08 2745  26.738   2.057   5.844  0.9256  1.5067  0.0840
  306UNK    F00 2746  27.139   2.546   4.057  0.1704 -0.1232  0.1393
  306UNK    C01 2747  27.260   2.539   3.997  0.1307  1.0004 -0.3053
  306UNK    H02 2748  27.266   2.446   3.941  0.3072 -0.0595  1.4595
  306UNK    C03 2749  27.359   2.623   4.003 -0.0193 -0.0577  0.6235
  306UNK    C04 2750  27.428   2.678   3.886 -0.3346  0.3127 -0.1385
  306UNK    F05 2751  27.511   2.776   3.922 -0.2469  0.6362 -0.0535
  306UNK    F06 2752  27.508   2.585   3.825 -0.1708 -0.4600 -0.2499
  306UNK    F07 2753  27.345   2.716   3.790 -0.4771 -0.0461  0.0441
  306UNK    H08 2754  27.403   2.650   4.098  0.6085  1.3985 -0.0603
  307UNK    F00 2755  25.198   3.066   5.596 -0.1363 -0.1549 -0.3869
  307UNK    C01 2756  25.222   2.943   5.548 -0.3916 -0.5231  0.0671
  307UNK    H02 2757  25.182   2.858   5.603  0.8081 -1.4771 -0.4908
  307UNK    C03 2758  25.296   2.923   5.442 -0.0728  0.2601 -0.4229
  307UNK    C04 2759  25.254   2.955   5.302  0.0400 -0.4711  0.1165
  307UNK    F05 2760  25.300   3.076   5.266 -0.0837  0.3138 -0.0169
  307UNK    F06 2761  25.297   2.886   5.192  0.7568  0.4495 -0.3530
  307UNK    F07 2762  25.116   2.961   5.297  0.1878 -0.3550 -0.2522
  307UNK    H08 2763  25.402   2.943   5.442 -0.1873  1.0580  2.2750
  308UNK    F00 2764  25.860   3.744   3.496 -0.2001 -0.0803  0.0740
  308UNK    C01 2765  25.987   3.750   3.449  0.5047  0.1943 -0.0718
  308UNK    H02 2766  26.064   3.742   3.525  0.7020  0.1903 -0.2726
  308UNK    C03 2767  26.007   3.767   3.316 -0.2461  0.3481 -0.3073
  308UNK    C04 2768  26.137   3.748   3.253 -0.1705 -0.6590  1.0039
  308UNK    F05 2769  26.194   3.635   3.298 -0.4962 -0.0304 -0.2007
  308UNK    F06 2770  26.136   3.742   3.119 -0.1613 -0.0412 -0.1138
  308UNK    F07 2771  26.211   3.859   3.279 -0.2285  0.5080 -0.3098
  308UNK    H08 2772  25.929   3.809   3.254  0.1858  2.6270  0.6439
  309UNK    F00 2773  27.557   5.056   3.759 -0.2296  0.6896  0.0556
  309UNK    C01 2774  27.527   5.169   3.826  0.4831  0.0062 -0.2628
  309UNK    H02 2775  27.589   5.252   3.794  1.4346 -0.1662  1.1132
  309UNK    C03 2776  27.420   5.161   3.906  0.2032 -0.2074 -0.2590
  309UNK    C04 2777  27.318   5.267   3.904  0.4773 -0.2319 -0.2473
  309UNK    F05 2778  27.357   5.397   3.898  0.3808  0.0871  0.3289
  309UNK    F06 2779  27.226   5.253   3.805 -0.3393  0.3642  0.2116
  309UNK    F07 2780  27.251   5.253   4.020  0.0548 -0.1837  0.3938
  309UNK    H08 2781  27.386   5.060   3.928  1.1362 -0.3746  0.4367
  310UNK    F00 2782  26.977   2.554   5.757 -0.4014 -0.0542  0.0904
  310UNK    C01 2783  26.938   2.564   5.885 -0.4872  0.2213 -0.2736
  310UNK    H02 2784  26.879   2.476   5.913 -0.9447  0.2764 -1.0547
  310UNK    C03 2785  26.989   2.661   5.966  0.3359 -0.2198 -0.2935
  310UNK    C04 2786  26.950   2.661   6.106  0.3255  0.7759 -0.0109
  310UNK    F05 2787  26.814   2.643   6.122  0.5039  0.7554 -0.3466
  310UNK    F06 2788  27.011   2.556   6.168 -0.0019 -0.1590  0.1439
  310UNK    F07 2789  26.982   2.767   6.173  0.3304 -0.4331 -0.0565
  310UNK    H08 2790  27.089   2.694   5.942  0.2447  1.1053  1.0990
  311UNK    F00 2791  26.664   1.312   3.891 -0.6677 -0.4622  0.1861
  311UNK    C01 2792  26.588   1.217   3.946  0.6099  0.3831  0.4482
  311UNK    H02 2793  26.620   1.194   4.047 -2.1124 -0.4693  1.1696
  311UNK    C03 2794  26.463   1.206   3.906  0.7467 -0.4954  0.0236
  311UNK    C04 2795  26.344   1.196   3.996  0.0284  0.3153  0.1054
  311UNK    F05 2796  26.310   1.319   4.035 -0.1843  0.5658  0.0322
  311UNK    F06 2797  26.235   1.136   3.929 -0.2311  0.0037 -0.3357
  311UNK    F07 2798  26.370   1.127   4.107  0.0675 -0.1374  0.2804
  311UNK    H08 2799  26.454   1.170   3.804  0.2865  0.3999 -0.2555
  312UNK    F00 2800  25.921   4.173   4.172 -0.3557 -0.2132 -0.5029
  312UNK    C01 2801  25.878   4.233   4.058 -0.5757  0.5279 -0.2207
  312UNK    H02 2802  25.847   4.157   3.986  1.0537  0.2292 -0.6249
  312UNK    C03 2803  25.947   4.346   4.034  0.1875 -0.4695 -0.0765
  312UNK    C04 2804  25.892   4.467   3.976  0.7236 -0.5080 -1.0403
  312UNK    F05 2805  25.992   4.523   3.905 -0.1259  0.0695 -0.1284
  312UNK    F06 2806  25.785   4.454   3.897 -0.1395  0.3815 -0.6771
  312UNK    F07 2807  25.870   4.563   4.070  0.4828  0.1022 -0.1304
  312UNK    H08 2808  26.054   4.345   4.025  0.1567  1.9853 -0.9535
  313UNK    F00 2809  26.366   1.243   4.700 -0.5804 -0.1963 -0.0311
  313UNK    C01 2810  26.251   1.304   4.724  0.6520  0.5251 -0.9218
  313UNK    H02 2811  26.222   1.262   4.820 -0.3848  1.6998 -0.7076
  313UNK    C03 2812  26.185   1.403   4.656  0.2099  0.7976 -0.4189
  313UNK    C04 2813  26.104   1.503   4.721  0.5276 -0.3430 -0.3119
  313UNK    F05 2814  26.136   1.632   4.707 -0.4433  0.2593 -0.2876
  313UNK    F06 2815  25.970   1.487   4.689 -0.6165  0.1408 -0.3841
  313UNK    F07 2816  26.112   1.477   4.851  0.2515 -0.2908  0.0545
  313UNK    H08 2817  26.218   1.442   4.561  1.0214  0.4459 -0.2832
  314UNK    F00 2818  25.355   1.401   4.490 -0.3625 -0.0393  0.3432
  314UNK    C01 2819  25.343   1.530   4.463 -0.6571 -0.4549 -0.0790
  314UNK    H02 2820  25.264   1.573   4.525  0.0540  0.8318 -0.0666
  314UNK    C03 2821  25.422   1.595   4.376  0.1394  0.3886 -0.2034
  314UNK    C04 2822  25.417   1.742   4.382  0.2584 -0.0040 -0.2359
  314UNK    F05 2823  25.295   1.794   4.348 -0.0903  0.6067  0.2783
  314UNK    F06 2824  25.476   1.798   4.488  0.6674  0.6805 -0.1488
  314UNK    F07 2825  25.494   1.778   4.281  0.2422 -0.2420 -0.3452
  314UNK    H08 2826  25.492   1.549   4.308 -0.1436 -0.7591  0.2666
  315UNK    F00 2827  28.443   3.181   4.729  0.2966  0.0157 -0.2867
  315UNK    C01 2828  28.324   3.140   4.772  0.4606  0.4051 -0.7915
  315UNK    H02 2829  28.345   3.053   4.835  2.1358  0.4185 -1.3140
  315UNK    C03 2830  28.212   3.197   4.746  0.0848 -0.2537 -0.6360
  315UNK    C04 2831  28.114   3.195   4.858 -0.0134  0.7546  0.0436
  315UNK    F05 2832  28.140   3.300   4.938 -0.0869  0.8481  0.4600
  315UNK    F06 2833  27.999   3.211   4.796  0.0446  0.3096  0.1649
  315UNK    F07 2834  28.120   3.077   4.933 -0.1019 -0.1766 -0.0552
  315UNK    H08 2835  28.165   3.185   4.650 -0.7324  1.1819 -0.4379
  316UNK    F00 2836  26.013   2.247   4.125  0.5219 -0.1114 -0.0766
  316UNK    C01 2837  26.086   2.232   4.008  0.4431 -0.0926 -0.4869
  316UNK    H02 2838  26.084   2.134   3.961 -0.9260 -0.1538 -0.3189
  316UNK    C03 2839  26.111   2.355   3.962  0.6685  0.8383 -0.1132
  316UNK    C04 2840  26.158   2.380   3.821  0.5236  0.3332 -0.5437
  316UNK    F05 2841  26.236   2.491   3.813 -0.3238 -0.1452  1.1970
  316UNK    F06 2842  26.236   2.281   3.765  0.5087  0.0576 -0.3786
  316UNK    F07 2843  26.047   2.389   3.737  0.4157  0.4925  0.2225
  316UNK    H08 2844  26.027   2.418   3.987 -0.1117 -0.2692  0.0732
  317UNK    F00 2845  28.177   5.161   4.431  0.2436  0.1339 -0.2658
  317UNK    C01 2846  28.108   5.242   4.350  0.4323  0.1004  0.1005
  317UNK    H02 2847  28.017   5.276   4.398 -0.5999  1.0791 -2.4491
  317UNK    C03 2848  28.118   5.210   4.218  0.7826 -0.1418  0.1035
  317UNK    C04 2849  28.108   5.312   4.113 -0.2279 -0.3517  0.2467
  317UNK    F05 2850  28.176   5.424   4.139  0.1740  0.4114  0.6367
  317UNK    F06 2851  28.158   5.257   4.003  0.1772 -0.0546 -0.3093
  317UNK    F07 2852  27.980   5.345   4.079 -0.5533 -0.0289  0.3357
  317UNK    H08 2853  28.129   5.105   4.197 -0.4068 -0.2147 -0.2075
  318UNK    F00 2854  24.298   1.692   5.114  0.3691 -0.3638  0.3492
  318UNK    C01 2855  24.385   1.752   5.190 -0.2074  0.5329  0.2748
  318UNK    H02 2856  24.459   1.684   5.234 -2.0121 -1.1063  0.8260
  318UNK    C03 2857  24.358   1.874   5.229  0.7490 -0.6079 -0.1792
  318UNK    C04 2858  24.252   1.898   5.329 -0.2956 -0.4393  0.6481
  318UNK    F05 2859  24.277   1.842   5.451 -0.3503  0.1544  0.8076
  318UNK    F06 2860  24.231   2.031   5.346  0.0675 -0.2444  0.0092
  318UNK    F07 2861  24.134   1.858   5.288  0.5478 -0.1184 -0.2774
  318UNK    H08 2862  24.435   1.949   5.225  0.2067  0.0168  0.8369
  319UNK    F00 2863  34.141   3.151   2.497 -0.6800 -0.1151 -0.7329
  319UNK    C01 2864  34.192   3.210   2.604  0.2260 -0.2935  0.3272
  319UNK    H02 2865  34.143   3.307   2.618 -0.2534 -0.3394 -1.0072
  319UNK    C03 2866  34.268   3.144   2.693  0.2490  0.4521 -0.5894
  319UNK    C04 2867  34.286   3.179   2.834 -0.4318  0.4691  0.3521
  319UNK    F05 2868  34.396   3.119   2.877  0.2942  0.4764 -0.4213
  319UNK    F06 2869  34.294   3.312   2.857  0.4030  0.3810 -0.1174
  319UNK    F07 2870  34.177   3.142   2.909  0.0095 -0.2182 -0.0875
  319UNK    H08 2871  34.297   3.041   2.678  2.0619  0.5772  1.7284
  320UNK    F00 2872  26.825   5.192   5.094  0.2163  0.2505  0.2618
  320UNK    C01 2873  26.853   5.058   5.074  0.3844 -0.3161  0.2925
  320UNK    H02 2874  26.766   4.992   5.069  1.4691 -1.8713  1.2148
  320UNK    C03 2875  26.983   5.016   5.076 -0.5577  0.0665 -0.2675
  320UNK    C04 2876  27.050   4.910   5.003  0.4797  0.2327  0.6952
  320UNK    F05 2877  27.158   4.862   5.059  0.0352  0.2640  0.5987
  320UNK    F06 2878  26.960   4.818   4.964  0.0704  0.1698 -0.1245
  320UNK    F07 2879  27.085   4.963   4.886 -0.5797 -0.5997 -0.3472
  320UNK    H08 2880  27.037   5.028   5.169  1.8591  0.2208 -1.6394
  321UNK    F00 2881  24.048   3.995   4.966  0.5557  0.1510  0.2503
  321UNK    C01 2882  24.051   4.122   5.005 -0.7616 -0.3392  0.0764
  321UNK    H02 2883  24.153   4.158   4.989  0.2538 -2.0971  2.3127
  321UNK    C03 2884  23.951   4.196   4.964  0.0757  0.1333  0.1265
  321UNK    C04 2885  23.838   4.233   5.055 -0.0812  0.1450  0.3131
  321UNK    F05 2886  23.860   4.348   5.115 -0.3793  0.1234 -0.4219
  321UNK    F06 2887  23.723   4.247   4.985  0.4145 -0.0737  0.4556
  321UNK    F07 2888  23.818   4.137   5.149 -0.2168  0.3367  0.2567
  321UNK    H08 2889  23.932   4.202   4.858  0.3478  0.4346  0.0923
  322UNK    F00 2890  25.422   4.392   4.035  0.5469  0.0284  0.2465
  322UNK    C01 2891  25.490   4.500   3.993 -0.3998 -0.0697 -0.4865
  322UNK    H02 2892  25.467   4.524   3.889  1.1118  1.1029 -0.5630
  322UNK    C03 2893  25.517   4.590   4.087 -1.1485 -0.1541  0.3163
  322UNK    C04 2894  25.525   4.732   4.068 -0.0574  0.0070  0.4429
  322UNK    F05 2895  25.586   4.785   4.175 -0.0665 -0.0568 -0.0757
  322UNK    F06 2896  25.605   4.748   3.962 -0.0699  0.0049  0.5499
  322UNK    F07 2897  25.404   4.786   4.044 -0.5044  0.0892  0.1912
  322UNK    H08 2898  25.598   4.560   4.153 -1.3813 -1.0732  0.1931
  323UNK    F00 2899  26.597   3.397   4.313  0.2214  0.0972 -0.5878
  323UNK    C01 2900  26.586   3.361   4.441 -0.5618 -0.1733 -0.5845
  323UNK    H02 2901  26.616   3.443   4.507  1.8978 -1.4467 -0.0685
  323UNK    C03 2902  26.499   3.262   4.464 -0.2915 -0.1341 -0.2812
  323UNK    C04 2903  26.369   3.243   4.388  0.2434  0.2736 -0.0830
  323UNK    F05 2904  26.300   3.160   4.466 -0.3170  0.2006  0.4671
  323UNK    F06 2905  26.299   3.356   4.367  0.3342  0.1300 -0.1534
  323UNK    F07 2906  26.393   3.196   4.263 -0.5331  0.2853 -0.2574
  323UNK    H08 2907  26.531   3.174   4.517 -0.8548  0.9325  1.8797
  324UNK    F00 2908  27.676   2.734   4.112 -0.0115 -0.0235  0.5870
  324UNK    C01 2909  27.763   2.674   4.192  0.1193  0.5094 -0.4147
  324UNK    H02 2910  27.732   2.576   4.230 -2.9034 -0.4902 -4.9751
  324UNK    C03 2911  27.871   2.735   4.230 -0.1221 -0.0650 -0.2449
  324UNK    C04 2912  27.997   2.675   4.270 -0.0617 -0.9184  0.6214
  324UNK    F05 2913  27.977   2.570   4.354  0.5391 -0.2923  0.1759
  324UNK    F06 2914  28.055   2.619   4.159  0.3771  0.2440  0.2160
  324UNK    F07 2915  28.081   2.761   4.334  0.0884  0.0158  0.2894
  324UNK    H08 2916  27.869   2.841   4.250 -1.5464 -0.3232  1.1012
  325UNK    F00 2917  26.445   3.775   5.118  0.0948 -0.3015  0.1886
  325UNK    C01 2918  26.552   3.780   5.033 -0.4876  0.0504  0.2919
  325UNK    H02 2919  26.638   3.822   5.085 -0.8956  1.6339 -0.2793
  325UNK    C03 2920  26.557   3.681   4.945 -0.3049 -0.1248 -0.5208
  325UNK    C04 2921  26.665   3.664   4.847  0.9554 -1.0108  0.1982
  325UNK    F05 2922  26.733   3.556   4.888  0.3978 -0.3052 -0.0070
  325UNK    F06 2923  26.627   3.630   4.722 -0.0846  0.2327  0.3229
  325UNK    F07 2924  26.753   3.769   4.838 -0.6955  0.3465  0.5700
  325UNK    H08 2925  26.468   3.631   4.911 -1.0004  1.5278 -1.1526
  326UNK    F00 2926  37.218   0.924   7.938 -0.1049  0.1184 -0.3224
  326UNK    C01 2927  37.186   1.004   7.839  0.5294 -0.4671 -1.1511
  326UNK    H02 2928  37.274   1.018   7.776 -0.1669  1.0723 -1.7929
  326UNK    C03 2929  37.093   1.103   7.861 -0.6214 -0.4736 -0.4097
  326UNK    C04 2930  37.034   1.186   7.757  0.0132 -0.4441  0.3207
  326UNK    F05 2931  37.138   1.205   7.670  0.8358 -0.4010  0.0075
  326UNK    F06 2932  36.932   1.132   7.686  0.2182 -0.1834 -0.3047
  326UNK    F07 2933  36.986   1.305   7.804  0.0830 -0.3049 -0.1542
  326UNK    H08 2934  37.059   1.128   7.961  0.9135  1.1043 -0.2534
  327UNK    F00 2935  26.151   5.205   4.751 -0.3718  0.0820  0.0956
  327UNK    C01 2936  26.283   5.180   4.737 -0.6194  0.8456  0.3951
  327UNK    H02 2937  26.336   5.184   4.832 -0.6057  0.0996  0.4176
  327UNK    C03 2938  26.317   5.120   4.623  0.2818 -0.4752 -0.4257
  327UNK    C04 2939  26.373   5.196   4.511  0.0003  0.5032 -0.5135
  327UNK    F05 2940  26.348   5.137   4.389 -0.4170  0.2867  0.1341
  327UNK    F06 2941  26.354   5.330   4.506  0.0950 -0.0689  0.3664
  327UNK    F07 2942  26.505   5.210   4.545 -0.3228  0.0143 -0.5781
  327UNK    H08 2943  26.265   5.034   4.584 -1.0271  0.0682  0.1130
  328UNK    F00 2944  24.454   3.295   5.138  0.1632  0.3031 -0.1648
  328UNK    C01 2945  24.431   3.372   5.244 -0.0547  0.5348 -0.3518
  328UNK    H02 2946  24.523   3.403   5.293 -1.0813  1.8572  0.7978
  328UNK    C03 2947  24.305   3.377   5.289  0.3582  0.0959  0.3907
  328UNK    C04 2948  24.248   3.293   5.397 -0.2349 -0.3672 -0.3498
  328UNK    F05 2949  24.277   3.164   5.365  0.1852 -0.3825 -0.5165
  328UNK    F06 2950  24.312   3.319   5.512  0.0135  0.2841 -0.0623
  328UNK    F07 2951  24.113   3.300   5.421 -0.1079 -0.1299  0.2964
  328UNK    H08 2952  24.232   3.433   5.232  0.7966 -0.4074 -0.6790
  329UNK    F00 2953  26.456   2.036   3.944  0.1090 -0.0883 -0.5116
  329UNK    C01 2954  26.479   2.157   4.002  0.0805 -0.0975 -0.1481
  329UNK    H02 2955  26.403   2.232   3.980 -2.0453 -1.7883  1.2162
  329UNK    C03 2956  26.607   2.178   4.038 -0.6700 -0.0362  0.5418
  329UNK    C04 2957  26.691   2.066   4.092  0.1534  0.6816  0.2350
  329UNK    F05 2958  26.714   1.982   3.987  0.4590 -0.1232  0.0070
  329UNK    F06 2959  26.814   2.116   4.113 -0.3827 -0.4525 -0.6581
  329UNK    F07 2960  26.639   2.006   4.200  0.8030 -0.0669 -0.0217
  329UNK    H08 2961  26.673   2.245   3.985  0.7110  0.8920  3.3226
  330UNK    F00 2962  27.282   1.883   3.241  0.3256 -0.3351 -0.4362
  330UNK    C01 2963  27.161   1.826   3.255 -0.1243 -0.0505  0.6302
  330UNK    H02 2964  27.160   1.730   3.307 -0.7959  0.2192  1.1254
  330UNK    C03 2965  27.046   1.890   3.223 -0.4179  0.7655  0.1451
  330UNK    C04 2966  26.919   1.874   3.288  0.6523 -0.7717 -0.3358
  330UNK    F05 2967  26.825   1.871   3.195  0.1334 -0.4760 -0.7259
  330UNK    F06 2968  26.902   1.783   3.389  0.0090 -0.6712  0.1034
  330UNK    F07 2969  26.903   1.993   3.353  0.0733 -0.2783 -0.1761
  330UNK    H08 2970  27.041   1.967   3.147 -1.3875 -0.3799 -0.9817
  331UNK    F00 2971  27.498   4.451  11.511 -0.6029 -0.2645  0.1429
  331UNK    C01 2972  27.477   4.417  11.381 -0.5739  0.2595  0.1585
  331UNK    H02 2973  27.519   4.497  11.319 -1.0612  0.1382 -0.3336
  331UNK    C03 2974  27.405   4.313  11.345  0.1775  0.1345  0.4983
  331UNK    C04 2975  27.406   4.257  11.208 -0.1320  0.7140 -0.3105
  331UNK    F05 2976  27.404   4.357  11.117 -0.0215  0.0145 -0.4615
  331UNK    F06 2977  27.513   4.177  11.183  0.2977 -0.5859 -0.1993
  331UNK    F07 2978  27.296   4.179  11.182  0.5938 -0.6137 -0.0705
  331UNK    H08 2979  27.319   4.286  11.405 -2.9700  3.9176 -2.1081
  332UNK    F00 2980  27.535   5.178   4.278  0.4401 -0.2592  0.3795
  332UNK    C01 2981  27.433   5.261   4.277  0.4380  0.5842 -0.5870
  332UNK    H02 2982  27.432   5.319   4.185  0.5585 -0.8456 -1.5060
  332UNK    C03 2983  27.369   5.260   4.394 -0.3116 -0.9082  0.4251
  332UNK    C04 2984  27.399   5.359   4.492 -0.3324  0.1443 -0.1295
  332UNK    F05 2985  27.337   5.478   4.472 -0.0940 -0.7008  0.2289
  332UNK    F06 2986  27.358   5.318   4.615 -0.2890  0.1762 -1.0192
  332UNK    F07 2987  27.527   5.386   4.512 -0.4232  0.0668 -0.4135
  332UNK    H08 2988  27.277   5.211   4.422 -0.2031 -0.1193  2.2410
  333UNK    F00 2989  28.259   4.087   5.155  0.2198  0.0679 -0.3575
  333UNK    C01 2990  28.145   4.012   5.150 -0.0089  0.1745 -0.0515
  333UNK    H02 2991  28.154   3.905   5.132  1.1782  0.1206  0.8418
  333UNK    C03 2992  28.035   4.086   5.163  1.0615 -0.9680 -0.1452
  333UNK    C04 2993  27.904   4.049   5.226 -0.1082 -0.6950 -0.6683
  333UNK    F05 2994  27.896   4.081   5.357  0.1107 -0.0138 -0.0834
  333UNK    F06 2995  27.808   4.111   5.149 -0.0725 -0.2129  0.2950
  333UNK    F07 2996  27.878   3.914   5.226 -0.0678  0.5431  0.3281
  333UNK    H08 2997  28.037   4.192   5.142  0.9218 -1.0973 -0.8412
  334UNK    F00 2998  23.926   5.130   4.684  0.4040 -0.1355 -0.1640
  334UNK    C01 2999  24.039   5.067   4.676  0.4301 -0.5813  0.0198
  334UNK    H02 3000  24.109   5.139   4.635 -1.0619  0.9400  0.0711
  334UNK    C03 3001  24.053   4.943   4.734  0.1419 -0.4691 -0.0936
  334UNK    C04 3002  24.191   4.886   4.756 -0.0945 -0.7944  0.1510
  334UNK    F05 3003  24.198   4.760   4.805  0.2735 -0.4506  0.1983
  334UNK    F06 3004  24.275   4.895   4.647 -0.1606 -0.5415 -0.7377
  334UNK    F07 3005  24.251   4.948   4.860 -0.0229 -0.3273  0.5303
  334UNK    H08 3006  23.981   4.864   4.718 -0.7781 -0.3281  2.9704
  335UNK    F00 3007  26.022   0.908   3.729 -0.3994 -0.4659  0.0700
  335UNK    C01 3008  25.903   0.947   3.758  0.4210 -0.6759 -0.1366
  335UNK    H02 3009  25.864   1.005   3.674 -0.1896  0.2928  0.8041
  335UNK    C03 3010  25.856   0.917   3.875  0.4998  0.8426  0.8150
  335UNK    C04 3011  25.709   0.916   3.904 -0.3841 -0.2259  0.2731
  335UNK    F05 3012  25.644   1.008   3.828 -0.6673  0.5352 -0.2935
  335UNK    F06 3013  25.649   0.791   3.890  0.2860 -0.2645 -0.1863
  335UNK    F07 3014  25.696   0.950   4.036  0.2205 -0.4444  0.0279
  335UNK    H08 3015  25.927   0.894   3.954  1.2693 -1.0776 -0.4076
  336UNK    F00 3016  23.943   1.232   5.964 -0.2986  0.0203 -0.2185
  336UNK    C01 3017  23.992   1.224   5.841  0.7632  0.0948 -0.1573
  336UNK    H02 3018  23.914   1.204   5.768  2.2093  0.6882 -1.8726
  336UNK    C03 3019  24.119   1.250   5.831  0.1405  0.0641 -0.3209
  336UNK    C04 3020  24.197   1.263   5.708  0.0362  0.0223 -0.0666
  336UNK    F05 3021  24.180   1.142   5.642 -0.2876 -0.1770 -0.2433
  336UNK    F06 3022  24.156   1.370   5.634  0.3840  0.2494 -0.1536
  336UNK    F07 3023  24.330   1.263   5.726  0.0286 -0.2754  0.4813
  336UNK    H08 3024  24.167   1.278   5.923  2.4887 -0.4737 -1.3447
  337UNK    F00 3025  30.240   0.723   5.876 -0.0035 -0.0612 -0.3338
  337UNK    C01 3026  30.109   0.722   5.900 -0.2343  0.3572 -0.1866
  337UNK    H02 3027  30.080   0.644   5.969  0.8619  0.1809  0.0929
  337UNK    C03 3028  30.027   0.806   5.836 -1.3353  0.0857  0.3201
  337UNK    C04 3029  29.888   0.840   5.873  0.3981  0.3505 -0.2331
  337UNK    F05 3030  29.874   0.967   5.850  0.4032  0.5224  0.0497
  337UNK    F06 3031  29.810   0.781   5.777  0.1793 -0.8217 -0.0355
  337UNK    F07 3032  29.842   0.799   5.993  0.0160  0.7282  0.1691
  337UNK    H08 3033  30.070   0.868   5.759 -0.2012  1.3571  1.9446
  338UNK    F00 3034  27.866   5.193   3.764 -0.5460  0.5214  0.3995
  338UNK    C01 3035  27.890   5.148   3.640  0.6990 -0.5567  0.0763
  338UNK    H02 3036  27.941   5.051   3.642 -1.2102 -1.6017 -0.1711
  338UNK    C03 3037  27.818   5.189   3.534 -0.3730  0.6874 -0.2576
  338UNK    C04 3038  27.829   5.321   3.470  0.3328 -0.7834  0.1378
  338UNK    F05 3039  27.827   5.316   3.335 -0.4127  0.0795 -0.3272
  338UNK    F06 3040  27.726   5.407   3.505  0.5436 -0.3010 -0.0029
  338UNK    F07 3041  27.943   5.379   3.508 -0.2076 -0.2875  0.2288
  338UNK    H08 3042  27.752   5.113   3.494  0.8244  0.3763 -1.6845
  339UNK    F00 3043  34.094   0.405   5.173  0.0219  0.1201 -0.0646
  339UNK    C01 3044  34.205   0.462   5.218  0.1235 -0.9971  0.3307
  339UNK    H02 3045  34.196   0.496   5.322  0.2705  0.5226 -0.1456
  339UNK    C03 3046  34.307   0.480   5.139 -0.4139 -0.0033  0.1923
  339UNK    C04 3047  34.432   0.535   5.190  0.2481 -0.1330  0.0317
  339UNK    F05 3048  34.522   0.543   5.086 -0.0690 -0.0923  0.3487
  339UNK    F06 3049  34.431   0.658   5.241  0.2830  0.2227 -0.0238
  339UNK    F07 3050  34.481   0.463   5.298  0.4210 -0.3425  0.1903
  339UNK    H08 3051  34.316   0.426   5.046 -0.8518 -0.2083  0.2673
  340UNK    F00 3052  24.206   1.499   4.596 -0.0438  0.0322 -0.2826
  340UNK    C01 3053  24.240   1.371   4.584  0.5328 -0.0486  0.6588
  340UNK    H02 3054  24.310   1.345   4.663  0.1708  0.2201  1.0692
  340UNK    C03 3055  24.187   1.290   4.486  0.1580 -0.1493  0.3179
  340UNK    C04 3056  24.232   1.151   4.485  0.6254  0.2062  0.4998
  340UNK    F05 3057  24.207   1.105   4.363  0.3597 -0.2259 -0.0764
  340UNK    F06 3058  24.366   1.139   4.517  0.4613  0.7843 -0.2085
  340UNK    F07 3059  24.165   1.070   4.568 -0.2351  0.0026  0.1596
  340UNK    H08 3060  24.087   1.316   4.455  0.4995  0.2074 -0.5229
  341UNK    F00 3061  27.800   0.794   3.990  0.2531  0.1027 -0.0330
  341UNK    C01 3062  27.719   0.897   4.011  0.6215 -0.1715 -0.4217
  341UNK    H02 3063  27.699   0.956   3.921 -1.6386 -1.3393 -0.7261
  341UNK    C03 3064  27.664   0.924   4.129 -0.7371  0.4524  0.4933
  341UNK    C04 3065  27.544   1.017   4.148 -0.0670  0.5872 -0.0720
  341UNK    F05 3066  27.530   1.069   4.274  0.5410  0.2274 -0.2376
  341UNK    F06 3067  27.568   1.131   4.072 -0.2086  0.1498  0.1530
  341UNK    F07 3068  27.426   0.966   4.107  0.3149  0.6438  0.5845
  341UNK    H08 3069  27.675   0.846   4.203  1.8374  1.3331  1.0947
  342UNK    F00 3070  26.417   3.815   3.514 -0.2427  0.6042  0.0646
  342UNK    C01 3071  26.478   3.698   3.497 -0.2633  0.4283  0.2815
  342UNK    H02 3072  26.490   3.655   3.397  0.2092  1.3628 -0.0675
  342UNK    C03 3073  26.510   3.637   3.612  1.3714 -0.2484 -0.0089
  342UNK    C04 3074  26.616   3.536   3.618 -0.3053 -1.0454 -0.0193
  342UNK    F05 3075  26.619   3.459   3.512 -0.5529 -0.0468  0.1324
  342UNK    F06 3076  26.741   3.579   3.646 -0.7993  0.5019  0.2258
  342UNK    F07 3077  26.597   3.446   3.716 -0.0022  0.6567 -0.4340
  342UNK    H08 3078  26.512   3.695   3.703  3.1011  0.8838 -0.7569
  343UNK    F00 3079  27.266   3.278   4.053 -0.2855 -0.2031 -0.1363
  343UNK    C01 3080  27.357   3.262   4.150 -0.3280 -0.7303  0.3547
  343UNK    H02 3081  27.444   3.327   4.145 -0.2064 -0.7377  2.0794
  343UNK    C03 3082  27.357   3.144   4.211  0.3445  0.9943 -0.3850
  343UNK    C04 3083  27.412   3.027   4.142  0.1062 -0.2787  0.5709
  343UNK    F05 3084  27.539   3.016   4.167 -0.5897  0.3209 -0.1386
  343UNK    F06 3085  27.345   2.915   4.190 -0.4145  0.2009 -0.1141
  343UNK    F07 3086  27.396   3.028   4.007  0.4519  0.3697  0.3456
  343UNK    H08 3087  27.298   3.125   4.299  0.3887 -0.3751 -0.6452
  344UNK    F00 3088  26.526   4.445   5.195  0.3400 -0.5770 -0.1021
  344UNK    C01 3089  26.412   4.468   5.256  0.4303  0.2790  0.4005
  344UNK    H02 3090  26.427   4.529   5.346 -0.4689 -2.0014  2.1336
  344UNK    C03 3091  26.299   4.461   5.188  0.4430  0.1503 -0.0438
  344UNK    C04 3092  26.278   4.491   5.048 -0.1410 -0.0117 -0.1055
  344UNK    F05 3093  26.149   4.522   5.024 -0.2564 -0.1643  0.2885
  344UNK    F06 3094  26.346   4.604   5.012 -0.1368 -0.4688 -0.1107
  344UNK    F07 3095  26.319   4.390   4.964  0.3167  0.4471 -0.4422
  344UNK    H08 3096  26.235   4.376   5.208  1.4407  0.0896  3.0507
  345UNK    F00 3097  27.615   2.864   6.396 -1.0885 -0.2147 -0.0996
  345UNK    C01 3098  27.720   2.812   6.463  0.0098  0.4267  0.4274
  345UNK    H02 3099  27.690   2.763   6.556  0.6620 -0.5448  0.1290
  345UNK    C03 3100  27.841   2.834   6.421  0.3441 -0.9896  0.0639
  345UNK    C04 3101  27.874   2.843   6.277  0.3376 -0.1576 -0.0246
  345UNK    F05 3102  28.006   2.842   6.248 -0.5848 -0.0745  0.0951
  345UNK    F06 3103  27.823   2.732   6.211 -0.3937  0.4502  0.1905
  345UNK    F07 3104  27.831   2.953   6.208 -0.1531 -0.4290  0.3847
  345UNK    H08 3105  27.926   2.852   6.485 -0.2154  1.2637  0.2147
  346UNK    F00 3106  28.785   4.893   4.683 -0.7248 -0.0033  0.5017
  346UNK    C01 3107  28.909   4.926   4.716  0.5244 -0.2287  0.6171
  346UNK    H02 3108  28.983   4.901   4.641 -0.4158 -3.7267  0.7663
  346UNK    C03 3109  28.927   4.973   4.839  0.5423 -0.6743 -0.2008
  346UNK    C04 3110  28.948   4.894   4.964 -0.1836  0.6058 -0.0714
  346UNK    F05 3111  28.929   4.976   5.066 -0.5240 -0.6148 -0.4674
  346UNK    F06 3112  28.852   4.806   4.983 -0.4299  0.0397  0.6496
  346UNK    F07 3113  29.072   4.830   4.979 -0.1217  0.1232  0.3825
  346UNK    H08 3114  28.866   5.061   4.855  1.0236 -0.4656  0.5323
  347UNK    F00 3115  34.007   2.077  13.663  0.3846  0.3387 -0.4568
  347UNK    C01 3116  33.948   2.123  13.551 -0.2395 -0.1845  0.3271
  347UNK    H02 3117  33.880   2.047  13.515 -1.1764 -0.1306  1.9610
  347UNK    C03 3118  33.982   2.238  13.499  0.4451 -0.1019 -0.2356
  347UNK    C04 3119  34.096   2.261  13.408  0.3552  0.2853 -0.1297
  347UNK    F05 3120  34.141   2.385  13.400  0.1658  0.5830  0.1761
  347UNK    F06 3121  34.209   2.192  13.436 -0.5669  0.6112 -0.2638
  347UNK    F07 3122  34.053   2.225  13.284  0.6893  0.2626 -0.5764
  347UNK    H08 3123  33.929   2.329  13.524  1.1176 -0.0436  1.0050
  348UNK    F00 3124  26.547   5.215  11.169  0.0504 -0.1415 -0.1320
  348UNK    C01 3125  26.482   5.262  11.272 -0.3379 -0.3522  0.0788
  348UNK    H02 3126  26.509   5.365  11.296 -0.7432  0.0456 -1.1786
  348UNK    C03 3127  26.366   5.202  11.302 -0.4976  0.8379  0.6191
  348UNK    C04 3128  26.274   5.256  11.407 -0.0442  0.3697  0.0642
  348UNK    F05 3129  26.348   5.293  11.522 -0.0419 -0.0044 -0.3824
  348UNK    F06 3130  26.228   5.377  11.362  0.1332  0.5031 -0.0340
  348UNK    F07 3131  26.183   5.159  11.438  0.2818 -0.0292  0.3893
  348UNK    H08 3132  26.351   5.098  11.277  1.1347  1.1641 -1.9469
  349UNK    F00 3133  25.616   0.644   4.414 -0.1806  0.1686  0.4420
  349UNK    C01 3134  25.575   0.736   4.501  0.0778  0.1735  0.2946
  349UNK    H02 3135  25.468   0.727   4.515 -0.3912  2.8141 -1.0812
  349UNK    C03 3136  25.656   0.825   4.561  0.8956  0.0527 -0.7376
  349UNK    C04 3137  25.733   0.935   4.494 -0.0579 -0.6461  1.0163
  349UNK    F05 3138  25.652   1.026   4.431  0.4325  0.0095 -0.1796
  349UNK    F06 3139  25.812   0.993   4.588  0.2277 -0.5799  0.4895
  349UNK    F07 3140  25.817   0.886   4.404 -0.3232  0.4971  0.7863
  349UNK    H08 3141  25.657   0.833   4.668  1.1615 -0.7521 -0.6806
  350UNK    F00 3142  24.056   1.549   4.103 -0.1481 -0.5919  0.1182
  350UNK    C01 3143  24.052   1.614   3.987 -0.0597 -0.2457 -0.0592
  350UNK    H02 3144  23.952   1.652   3.968  0.3721  1.0497  0.1959
  350UNK    C03 3145  24.155   1.596   3.897 -0.5323  0.0482 -1.4854
  350UNK    C04 3146  24.180   1.676   3.776 -0.0924 -0.5129 -0.8121
  350UNK    F05 3147  24.251   1.794   3.785 -0.0034 -0.0273  0.2988
  350UNK    F06 3148  24.238   1.594   3.690  0.6062 -0.4738  0.4671
  350UNK    F07 3149  24.063   1.722   3.717 -0.2149  0.5557  0.4037
  350UNK    H08 3150  24.237   1.531   3.925 -0.1704  1.0219 -0.2373
  351UNK    F00 3151  24.321   2.117   3.540  0.1155 -0.1687 -0.1229
  351UNK    C01 3152  24.349   2.198   3.644  0.3098 -0.5174 -0.1421
  351UNK    H02 3153  24.397   2.291   3.613 -0.5243 -0.2690 -0.7004
  351UNK    C03 3154  24.343   2.149   3.767 -0.7772  0.7627  0.3432
  351UNK    C04 3155  24.464   2.132   3.852  0.4301  0.3318  0.2081
  351UNK    F05 3156  24.485   2.016   3.918 -0.3115 -0.5202 -0.3764
  351UNK    F06 3157  24.569   2.139   3.766 -0.6301 -0.4176  0.6416
  351UNK    F07 3158  24.477   2.228   3.952 -0.1579  0.0535  0.0360
  351UNK    H08 3159  24.279   2.063   3.781  1.5076 -1.5220 -2.3818
  352UNK    F00 3160  28.965   2.774   5.551  0.2692 -0.7573  0.3504
  352UNK    C01 3161  28.861   2.772   5.639  0.1280  0.4037  0.4196
  352UNK    H02 3162  28.854   2.867   5.691  3.0958  0.4609  0.7965
  352UNK    C03 3163  28.768   2.675   5.628 -0.1005  0.2269  0.2602
  352UNK    C04 3164  28.714   2.630   5.497  0.3576 -0.4827 -0.1459
  352UNK    F05 3165  28.786   2.534   5.446 -0.1308  0.0710  0.8330
  352UNK    F06 3166  28.593   2.568   5.514 -0.4722  0.0124  0.0996
  352UNK    F07 3167  28.672   2.732   5.413  0.2929 -0.1828  1.2289
  352UNK    H08 3168  28.779   2.588   5.692 -1.9731 -0.5121 -0.4041
  353UNK    F00 3169  27.640   1.064   4.977 -0.1362  0.4183  0.4417
  353UNK    C01 3170  27.520   1.082   5.042  0.9171  0.5389  0.3023
  353UNK    H02 3171  27.527   1.101   5.150 -2.8026  0.0398  0.7177
  353UNK    C03 3172  27.404   1.052   4.977 -0.8573 -0.1155  0.1901
  353UNK    C04 3173  27.272   1.105   4.997 -0.0468  0.6010  0.0894
  353UNK    F05 3174  27.247   1.135   5.128 -0.3069 -0.5045 -0.1113
  353UNK    F06 3175  27.245   1.222   4.939 -0.0438  0.4799  0.0009
  353UNK    F07 3176  27.176   1.024   4.944  0.3955 -0.0979 -0.0447
  353UNK    H08 3177  27.420   1.040   4.870 -1.0300  0.4099  0.1044
  354UNK    F00 3178  24.396   2.029   5.613  0.1156 -0.8838  0.0159
  354UNK    C01 3179  24.442   2.043   5.744 -0.0448 -0.2914  0.0649
  354UNK    H02 3180  24.544   2.082   5.746 -0.8424  2.0303 -1.5248
  354UNK    C03 3181  24.364   2.008   5.841 -0.1500  0.6478  0.4409
  354UNK    C04 3182  24.381   2.053   5.980  0.2562 -0.7020 -0.2156
  354UNK    F05 3183  24.496   2.028   6.033  0.0505  0.0594  0.1141
  354UNK    F06 3184  24.351   2.182   5.989  0.3474 -0.1545  0.0839
  354UNK    F07 3185  24.300   1.979   6.062 -0.2983  0.0168 -0.3868
  354UNK    H08 3186  24.263   1.974   5.822 -0.1584  0.7174  0.3526
  355UNK    F00 3187  26.919   4.291   0.118 -0.3653 -0.3204 -0.4166
  355UNK    C01 3188  26.926   4.400   0.200 -0.2006  0.3997  0.5746
  355UNK    H02 3189  27.025   4.445   0.200  0.0138 -0.0662  0.1148
  355UNK    C03 3190  26.815   4.468   0.234 -0.0990  0.5625  0.0167
  355UNK    C04 3191  26.812   4.610   0.283  0.6639 -0.2642 -0.1803
  355UNK    F05 3192  26.902   4.676   0.203 -0.3580  0.5572  0.1039
  355UNK    F06 3193  26.692   4.678   0.260 -0.0300  0.2467  0.0410
  355UNK    F07 3194  26.840   4.613   0.416 -0.0548  0.2467  0.5959
  355UNK    H08 3195  26.727   4.413   0.262  0.2876  0.7320  1.5937
  356UNK    F00 3196  27.199   3.654   5.437  0.2939 -0.3544 -0.0327
  356UNK    C01 3197  27.078   3.602   5.449 -0.2280 -0.0748 -0.6544
  356UNK    H02 3198  27.073   3.528   5.529  0.5799  0.0200 -0.5120
  356UNK    C03 3199  26.973   3.647   5.387 -0.1596 -0.1201  0.0270
  356UNK    C04 3200  26.838   3.592   5.415 -0.0234  0.2615  0.0621
  356UNK    F05 3201  26.779   3.652   5.521  0.1194  0.3859 -0.3402
  356UNK    F06 3202  26.759   3.615   5.303  0.1504  0.7685 -0.0516
  356UNK    F07 3203  26.839   3.464   5.448 -0.2062 -0.0501 -0.7225
  356UNK    H08 3204  26.985   3.696   5.291  0.0761 -2.3115 -1.0931
  357UNK    F00 3205  23.871   4.333   6.241 -0.2407  0.3577  0.0138
  357UNK    C01 3206  23.999   4.294   6.229  0.5611 -0.3383  0.4393
  357UNK    H02 3207  23.998   4.187   6.211  2.8655  0.1152 -2.7463
  357UNK    C03 3208  24.093   4.368   6.287 -0.5533  0.5429  0.3332
  357UNK    C04 3209  24.233   4.364   6.238  0.0173 -1.5294  0.1819
  357UNK    F05 3210  24.313   4.414   6.338  0.1664 -0.1643  0.5307
  357UNK    F06 3211  24.269   4.232   6.221 -0.4079  0.0492  0.0705
  357UNK    F07 3212  24.252   4.432   6.120 -0.5601 -0.1901 -0.3152
  357UNK    H08 3213  24.071   4.448   6.356 -3.1600  0.2406 -0.1058
  358UNK    F00 3214  27.877   2.953   4.763  0.1587  0.4058 -0.1542
  358UNK    C01 3215  27.913   2.866   4.861  0.5367 -0.4298  0.2436
  358UNK    H02 3216  27.975   2.917   4.934  0.3057 -0.0276  0.1619
  358UNK    C03 3217  27.879   2.738   4.854  0.5533  0.2210 -0.0254
  358UNK    C04 3218  27.956   2.658   4.758 -0.1361 -1.1529  0.3217
  358UNK    F05 3219  27.968   2.724   4.640 -0.2711 -0.1790  0.0846
  358UNK    F06 3220  28.077   2.623   4.814 -0.3028 -0.2005 -0.2650
  358UNK    F07 3221  27.891   2.544   4.724 -0.5588 -0.5590  0.3729
  358UNK    H08 3222  27.784   2.702   4.890  0.7011 -0.0398  0.1100
  359UNK    F00 3223  26.515   4.004   6.418 -0.0644 -0.2084  0.4704
  359UNK    C01 3224  26.615   3.932   6.362  0.0202  0.0388 -0.6133
  359UNK    H02 3225  26.711   3.948   6.411  0.5650 -2.5133 -0.7805
  359UNK    C03 3226  26.604   3.896   6.237  0.1187  0.1739  0.0432
  359UNK    C04 3227  26.640   3.994   6.135 -0.3808 -0.4682  0.2308
  359UNK    F05 3228  26.769   4.038   6.139  0.6732 -0.2150  0.1897
  359UNK    F06 3229  26.634   3.942   6.010 -0.0065  0.2786  0.5654
  359UNK    F07 3230  26.559   4.108   6.131 -0.2274  0.6659  0.1890
  359UNK    H08 3231  26.604   3.792   6.209  2.1340 -0.1071  0.9613
  360UNK    F00 3232  20.708   2.686   9.772  0.0126  0.6492 -0.6674
  360UNK    C01 3233  20.744   2.735   9.892 -0.4161 -0.5162 -0.5035
  360UNK    H02 3234  20.663   2.778   9.951  0.4117  0.8822 -0.3622
  360UNK    C03 3235  20.855   2.682   9.951  0.3297 -0.1002 -0.9406
  360UNK    C04 3236  20.906   2.735  10.080 -0.2308 -0.1630 -0.0068
  360UNK    F05 3237  20.836   2.703  10.189 -0.1028 -0.0505 -0.0559
  360UNK    F06 3238  21.039   2.700  10.092  0.3892 -0.3734 -0.1676
  360UNK    F07 3239  20.908   2.869  10.072  0.3520 -0.0210 -0.1809
  360UNK    H08 3240  20.937   2.636   9.899 -0.5222 -1.9662 -0.6741
  361UNK    F00 3241  25.285   1.058   5.566 -0.6935 -0.1422  0.3003
  361UNK    C01 3242  25.279   1.172   5.625 -0.0930 -0.3149 -0.1918
  361UNK    H02 3243  25.322   1.242   5.554 -0.7131 -0.4498 -0.7059
  361UNK    C03 3244  25.285   1.161   5.755 -0.4955 -0.3864  0.2731
  361UNK    C04 3245  25.275   1.274   5.841  0.2933  0.3677 -1.1674
  361UNK    F05 3246  25.372   1.363   5.811  0.2173 -0.2683 -0.4214
  361UNK    F06 3247  25.152   1.337   5.830 -0.1449  0.0942 -0.1735
  361UNK    F07 3248  25.295   1.235   5.972  0.0686 -0.1632  0.2440
  361UNK    H08 3249  25.337   1.076   5.798  0.3717 -0.8796 -1.6912
  362UNK    F00 3250  19.656   2.730   1.432 -0.2643 -0.1621  0.4417
  362UNK    C01 3251  19.734   2.672   1.344  0.5911 -0.1122 -1.0224
  362UNK    H02 3252  19.683   2.671   1.248 -2.3012 -1.6031  0.4748
  362UNK    C03 3253  19.862   2.653   1.382  0.3205  0.1051 -0.0821
  362UNK    C04 3254  19.976   2.622   1.296  0.4142  0.2015  0.4380
  362UNK    F05 3255  20.084   2.575   1.362 -0.2046 -0.0604 -0.4031
  362UNK    F06 3256  19.948   2.518   1.215  0.1062 -0.6480 -0.0848
  362UNK    F07 3257  20.027   2.729   1.226  0.2157 -0.0325 -0.7130
  362UNK    H08 3258  19.870   2.616   1.483 -0.7450 -0.2523 -0.1192
  363UNK    F00 3259  26.686   4.130   4.048  0.2160  0.3639  0.7421
  363UNK    C01 3260  26.677   4.013   4.116 -0.2987  0.6665 -0.1597
  363UNK    H02 3261  26.607   3.942   4.072  1.9540 -1.6343 -0.1643
  363UNK    C03 3262  26.766   3.998   4.218 -0.1869  0.1305 -0.1910
  363UNK    C04 3263  26.762   3.882   4.316 -0.0764 -0.4025  0.1604
  363UNK    F05 3264  26.637   3.868   4.365 -0.1673 -0.0547 -0.0252
  363UNK    F06 3265  26.786   3.769   4.248 -0.1088  0.0076 -0.2877
  363UNK    F07 3266  26.837   3.920   4.425  0.3946 -0.1152 -0.2874
  363UNK    H08 3267  26.822   4.083   4.255  1.9610 -0.9442 -0.8997
  364UNK    F00 3268  27.325   5.039   6.083  0.4228 -0.2240  0.3045
  364UNK    C01 3269  27.444   5.094   6.122  0.1314 -0.3120 -0.2081
  364UNK    H02 3270  27.443   5.203   6.124 -1.3507 -0.3360  1.6815
  364UNK    C03 3271  27.557   5.027   6.117  0.5228  0.4351  0.3697
  364UNK    C04 3272  27.676   5.048   6.204  0.8522  0.4775 -0.3659
  364UNK    F05 3273  27.782   4.978   6.168 -0.0909  0.1089 -0.0582
  364UNK    F06 3274  27.713   5.180   6.198  0.1205 -0.2718 -0.2110
  364UNK    F07 3275  27.642   5.016   6.331  0.4580  0.0472  0.7961
  364UNK    H08 3276  27.573   4.953   6.040  1.3098  1.1715 -0.1941
  365UNK    F00 3277  26.697   1.857   3.542 -0.4100 -0.6251 -0.4149
  365UNK    C01 3278  26.621   1.963   3.570  0.0523  0.5522 -0.2292
  365UNK    H02 3279  26.602   1.964   3.677  0.1715  0.6764 -0.2079
  365UNK    C03 3280  26.621   2.066   3.483  0.0392 -0.8053 -0.2580
  365UNK    C04 3281  26.582   2.205   3.504 -0.1754 -0.4692 -0.2804
  365UNK    F05 3282  26.524   2.249   3.389 -0.0453  0.1012 -0.0882
  365UNK    F06 3283  26.494   2.207   3.605  0.0276 -0.3159 -0.2531
  365UNK    F07 3284  26.683   2.287   3.538 -0.4008  0.6761 -0.1257
  365UNK    H08 3285  26.617   2.035   3.380 -0.8430  0.1175 -0.5163
  366UNK    F00 3286  27.294   3.351   6.738 -0.6228 -0.9050  0.1621
  366UNK    C01 3287  27.299   3.325   6.610 -0.0859  0.6698 -0.0729
  366UNK    H02 3288  27.317   3.418   6.557  2.6851 -1.0482 -2.3004
  366UNK    C03 3289  27.302   3.201   6.570 -0.0174  0.2209  0.3014
  366UNK    C04 3290  27.345   3.166   6.436  0.5243 -0.1407  0.6401
  366UNK    F05 3291  27.477   3.170   6.424 -0.2630  0.3920 -0.0611
  366UNK    F06 3292  27.304   3.043   6.390  0.1205 -0.0188  0.2186
  366UNK    F07 3293  27.297   3.252   6.345  0.1060 -0.4124 -0.0924
  366UNK    H08 3294  27.217   3.147   6.608 -1.5027  1.1967 -1.5536
  367UNK    F00 3295  25.874   0.645   4.111 -0.3164 -0.7608  0.2465
  367UNK    C01 3296  25.820   0.566   4.206  0.0748  0.6282  0.4252
  367UNK    H02 3297  25.825   0.623   4.298 -1.8435 -1.1231  1.6601
  367UNK    C03 3298  25.853   0.439   4.213 -0.3162 -0.4799 -0.5080
  367UNK    C04 3299  25.797   0.339   4.313  0.3758  0.3272  0.8860
  367UNK    F05 3300  25.693   0.283   4.253  0.2354 -0.5263 -0.1617
  367UNK    F06 3301  25.882   0.232   4.341  0.4890 -0.2449  0.2288
  367UNK    F07 3302  25.757   0.392   4.432 -0.1445  0.1003 -0.1034
  367UNK    H08 3303  25.943   0.407   4.163  0.7527  2.4706 -0.5044
  368UNK    F00 3304  27.810   3.070   4.010  0.0076  0.0433 -0.4448
  368UNK    C01 3305  27.800   2.973   3.919 -0.4755  1.0160 -0.0852
  368UNK    H02 3306  27.703   2.924   3.916 -0.5838  1.0975  1.6243
  368UNK    C03 3307  27.909   2.939   3.849 -0.2529 -0.4015  0.0057
  368UNK    C04 3308  28.034   2.884   3.905 -0.6588  0.2875  0.3898
  368UNK    F05 3309  28.012   2.760   3.941  0.2496 -0.0357  0.1558
  368UNK    F06 3310  28.132   2.867   3.809  0.6713  0.0993  0.0337
  368UNK    F07 3311  28.098   2.957   4.001 -0.7128  0.1685 -0.0110
  368UNK    H08 3312  27.930   2.975   3.750 -1.6395 -0.8386 -0.4598
  369UNK    F00 3313  27.037   4.849   4.401  0.0062  0.3075  0.7353
  369UNK    C01 3314  27.143   4.775   4.425  0.3058  0.3525  0.4196
  369UNK    H02 3315  27.143   4.714   4.515 -0.7942 -0.7127 -0.2877
  369UNK    C03 3316  27.203   4.764   4.315 -0.2849  0.7076 -0.5423
  369UNK    C04 3317  27.281   4.875   4.260  0.4836 -0.2506  0.1644
  369UNK    F05 3318  27.269   4.890   4.127  0.1307 -0.6381 -0.2557
  369UNK    F06 3319  27.244   4.997   4.318 -0.5022  0.1043  0.3386
  369UNK    F07 3320  27.415   4.846   4.295 -0.2302  0.1828 -0.1901
  369UNK    H08 3321  27.211   4.669   4.265 -0.6796  0.2311  0.2938
  370UNK    F00 3322  25.660   1.110   4.776  0.2286  0.2092 -0.2157
  370UNK    C01 3323  25.674   1.236   4.729 -0.6171  0.4803 -0.1987
  370UNK    H02 3324  25.780   1.246   4.703 -0.4838  0.4556  0.3215
  370UNK    C03 3325  25.601   1.321   4.793  0.3608 -0.4856 -0.2160
  370UNK    C04 3326  25.641   1.372   4.924  0.1819  0.2025  0.0603
  370UNK    F05 3327  25.667   1.278   5.021 -0.1214 -0.0201 -0.2134
  370UNK    F06 3328  25.740   1.466   4.922  0.4857  0.1837  0.3592
  370UNK    F07 3329  25.536   1.442   4.964 -0.4167 -0.0722 -0.2188
  370UNK    H08 3330  25.498   1.344   4.769  0.8941  0.9929 -1.2017
  371UNK    F00 3331  35.792   3.844   1.478 -0.0018  0.3023  0.2732
  371UNK    C01 3332  35.890   3.850   1.390  0.6356 -0.1500  0.5753
  371UNK    H02 3333  35.925   3.953   1.376  0.4782  0.2759  3.0184
  371UNK    C03 3334  35.964   3.748   1.370  0.0972 -0.4687  0.1491
  371UNK    C04 3335  36.109   3.750   1.372  0.5940 -0.0295  0.2620
  371UNK    F05 3336  36.155   3.770   1.497  0.2107  0.1171  0.3245
  371UNK    F06 3337  36.168   3.638   1.327  0.8674  0.1916 -0.0868
  371UNK    F07 3338  36.163   3.848   1.296 -0.3616  0.0784 -0.2952
  371UNK    H08 3339  35.926   3.650   1.396 -0.9433 -0.3974 -1.0599
  372UNK    F00 3340  25.882   1.242   3.625 -0.2279 -0.2055 -0.0776
  372UNK    C01 3341  25.891   1.362   3.682 -0.2870  0.5384 -0.2632
  372UNK    H02 3342  25.995   1.389   3.704 -0.1196 -1.5780  1.7767
  372UNK    C03 3343  25.788   1.448   3.685  0.0762 -0.3162  0.1738
  372UNK    C04 3344  25.798   1.592   3.636  0.4238  0.5095 -0.6809
  372UNK    F05 3345  25.709   1.662   3.705 -0.4337  0.2642 -0.2734
  372UNK    F06 3346  25.913   1.657   3.659 -1.3142  0.2711 -0.0993
  372UNK    F07 3347  25.785   1.596   3.503  0.5855 -0.0799  0.2651
  372UNK    H08 3348  25.695   1.424   3.735 -0.2950  1.0375  0.1720
  373UNK    F00 3349  25.021   5.116   5.336 -0.3984 -0.0081 -0.2204
  373UNK    C01 3350  24.903   5.156   5.307 -0.5538 -0.2634 -0.8955
  373UNK    H02 3351  24.858   5.087   5.236 -1.5254 -0.7548  0.1710
  373UNK    C03 3352  24.867   5.274   5.350  0.6582  0.2583  0.2966
  373UNK    C04 3353  24.928   5.397   5.302  0.4988  0.1886 -0.0414
  373UNK    F05 3354  24.937   5.496   5.395  0.0440  0.4006  0.2564
  373UNK    F06 3355  25.055   5.380   5.256  0.4255 -0.5679 -0.1736
  373UNK    F07 3356  24.850   5.445   5.206 -0.3301  0.5838  0.0127
  373UNK    H08 3357  24.793   5.294   5.426 -0.4411 -0.6943 -0.5159
  374UNK    F00 3358  28.039   0.532  11.243 -0.2651  0.1198  0.1024
  374UNK    C01 3359  28.075   0.406  11.266 -0.0201 -0.7388 -0.1949
  374UNK    H02 3360  28.180   0.398  11.296 -0.1639  1.4552  0.9632
  374UNK    C03 3361  27.993   0.308  11.243  0.3068  0.0694  0.7352
  374UNK    C04 3362  27.854   0.302  11.293  0.2815  0.3137 -0.6434
  374UNK    F05 3363  27.775   0.386  11.227  0.6765 -0.3724  0.0765
  374UNK    F06 3364  27.805   0.181  11.257  0.0317  0.2280  0.2822
  374UNK    F07 3365  27.856   0.310  11.428  0.2264 -0.3537  0.2284
  374UNK    H08 3366  28.021   0.230  11.174  3.1569  0.8863  0.9156
  375UNK    F00 3367  25.792   4.640   4.391  0.1525  0.0712  0.3197
  375UNK    C01 3368  25.909   4.706   4.370 -0.1335  0.1809 -0.6166
  375UNK    H02 3369  25.995   4.640   4.363 -2.0170 -2.4815  0.1231
  375UNK    C03 3370  25.906   4.815   4.298  0.2471  0.3583 -0.5606
  375UNK    C04 3371  26.015   4.880   4.233  0.0350 -0.3692  0.8615
  375UNK    F05 3372  26.035   4.819   4.110 -0.2744 -0.6024 -0.3784
  375UNK    F06 3373  25.998   5.011   4.218  0.2190 -0.6139  0.2221
  375UNK    F07 3374  26.120   4.856   4.312 -0.5954  0.1658 -0.3631
  375UNK    H08 3375  25.811   4.837   4.253 -0.2286  0.5976  0.5576
  376UNK    F00 3376  26.990   1.580  11.978 -0.0560 -0.3189  0.1964
  376UNK    C01 3377  27.049   1.460  11.975 -0.2428 -0.0159 -0.1362
  376UNK    H02 3378  26.995   1.386  11.916 -0.5646 -1.2300  1.6339
  376UNK    C03 3379  27.157   1.440  12.053 -0.4241  0.2024  0.8957
  376UNK    C04 3380  27.253   1.334  12.029 -0.4685 -0.3350 -0.3914
  376UNK    F05 3381  27.254   1.256  12.145  0.7370  0.2149 -0.3237
  376UNK    F06 3382  27.209   1.258  11.921 -0.2066  0.4552 -0.3543
  376UNK    F07 3383  27.385   1.371  12.009 -0.6230 -0.4980 -0.6676
  376UNK    H08 3384  27.214   1.519  12.100  0.8122 -0.4317  0.4755
  377UNK    F00 3385  25.088   0.879   5.176 -0.0148 -0.1491  0.3027
  377UNK    C01 3386  25.073   0.993   5.243 -0.0596 -0.0355 -0.2468
  377UNK    H02 3387  25.018   1.069   5.188  0.3602  0.2875 -0.2192
  377UNK    C03 3388  25.058   0.979   5.370 -0.0998 -0.0987 -0.0745
  377UNK    C04 3389  24.986   1.079   5.454 -0.6202 -0.3036 -0.4459
  377UNK    F05 3390  24.856   1.078   5.432 -0.1022  0.1545 -0.2929
  377UNK    F06 3391  25.004   1.046   5.586 -0.4653  0.0862 -0.6640
  377UNK    F07 3392  25.030   1.206   5.447  0.3235  0.3400  0.0311
  377UNK    H08 3393  25.021   0.882   5.401 -0.8832 -0.1202 -1.0838
  378UNK    F00 3394  25.771   3.201   4.461  0.4873  0.9150  0.1684
  378UNK    C01 3395  25.835   3.255   4.356  0.7122 -0.1839 -0.2898
  378UNK    H02 3396  25.814   3.200   4.264  0.1681  1.6357 -1.2672
  378UNK    C03 3397  25.897   3.372   4.369 -0.0420  0.7325 -0.0505
  378UNK    C04 3398  25.923   3.457   4.252  0.1498  0.3863  0.1722
  378UNK    F05 3399  25.946   3.388   4.135  0.2739 -0.0268  0.1225
  378UNK    F06 3400  25.812   3.538   4.236 -0.2807 -0.1140 -0.4521
  378UNK    F07 3401  26.031   3.528   4.286  0.1503  0.1149 -0.7622
  378UNK    H08 3402  25.972   3.389   4.445  1.4714 -1.2210 -1.0599
  379UNK    F00 3403  26.181   3.032   4.708 -0.0672 -0.1707  0.0403
  379UNK    C01 3404  26.244   3.071   4.820  0.0553  0.0719 -0.5731
  379UNK    H02 3405  26.242   2.999   4.902 -3.1258  0.5065 -0.2241
  379UNK    C03 3406  26.320   3.179   4.826 -0.2794 -0.2674 -0.5131
  379UNK    C04 3407  26.255   3.301   4.875  0.2753 -0.3808 -0.9309
  379UNK    F05 3408  26.216   3.282   5.007 -0.4174  0.4073  0.1336
  379UNK    F06 3409  26.332   3.409   4.874 -0.5299  0.0896  0.2206
  379UNK    F07 3410  26.142   3.336   4.803 -0.3546  0.6373  0.8674
  379UNK    H08 3411  26.380   3.206   4.740 -0.3439 -0.4673 -0.6211
  380UNK    F00 3412  26.452   1.572   3.243  0.3953 -0.2080 -0.0252
  380UNK    C01 3413  26.524   1.568   3.357 -0.2058  0.7220  0.8642
  380UNK    H02 3414  26.488   1.633   3.436 -1.7130  1.0480 -0.0499
  380UNK    C03 3415  26.620   1.474   3.364  0.5941 -0.0593  0.9835
  380UNK    C04 3416  26.755   1.486   3.324 -0.2558 -0.6525  0.9010
  380UNK    F05 3417  26.788   1.371   3.253 -0.3149  0.1380  0.3400
  380UNK    F06 3418  26.781   1.586   3.231 -0.3056  0.0032 -0.4329
  380UNK    F07 3419  26.831   1.504   3.440  0.5480  0.4636  0.2165
  380UNK    H08 3420  26.584   1.373   3.349  1.4362 -0.1639 -0.4723
  381UNK    F00 3421  24.799   2.568   5.746 -0.4428  0.0868  0.0854
  381UNK    C01 3422  24.913   2.548   5.805 -0.2865 -0.4229  0.7016
  381UNK    H02 3423  24.929   2.633   5.872 -2.9559  1.2477 -0.6826
  381UNK    C03 3424  24.948   2.427   5.832 -0.0177 -0.2798 -0.8956
  381UNK    C04 3425  24.869   2.331   5.913 -0.1733 -0.7335  0.1171
  381UNK    F05 3426  24.758   2.276   5.861  0.3079 -0.1859 -0.2447
  381UNK    F06 3427  24.955   2.235   5.959  0.5806  0.2203 -0.2386
  381UNK    F07 3428  24.821   2.389   6.020 -0.0563 -0.1314  0.1636
  381UNK    H08 3429  25.037   2.388   5.785  1.1854  1.9996 -0.5737
  382UNK    F00 3430  26.839   3.885   3.791  0.2000 -0.2506  0.2314
  382UNK    C01 3431  26.906   3.800   3.872 -0.0520 -0.7323 -0.1039
  382UNK    H02 3432  26.916   3.706   3.817 -0.5565 -0.7753 -0.1235
  382UNK    C03 3433  26.997   3.865   3.953  0.4168 -0.5954 -0.4725
  382UNK    C04 3434  27.104   3.963   3.909 -0.6825 -0.2588  0.6124
  382UNK    F05 3435  27.152   3.904   3.800  0.0051 -0.3790 -0.0810
  382UNK    F06 3436  27.048   4.085   3.878 -0.3914 -0.2651  0.7977
  382UNK    F07 3437  27.206   3.978   3.996 -0.3307  0.1640 -0.6057
  382UNK    H08 3438  27.010   3.829   4.055 -1.5984  0.2875  0.1201
  383UNK    F00 3439  27.537   3.047   5.283  0.3617 -0.3740  0.3637
  383UNK    C01 3440  27.418   3.076   5.225  0.2974 -0.5434  0.5352
  383UNK    H02 3441  27.348   2.993   5.233 -1.8219  0.8707 -2.3806
  383UNK    C03 3442  27.391   3.206   5.194 -0.6938 -0.3007  0.0840
  383UNK    C04 3443  27.256   3.259   5.153 -0.0375  0.0984 -0.0804
  383UNK    F05 3444  27.236   3.255   5.018 -0.0917  0.1685 -0.5853
  383UNK    F06 3445  27.166   3.173   5.211 -0.3879  0.5534 -0.0374
  383UNK    F07 3446  27.231   3.387   5.186 -0.5456  0.1305  0.1849
  383UNK    H08 3447  27.470   3.272   5.164 -0.8474 -0.9691 -1.8303
  384UNK    F00 3448  27.045   0.631  14.144 -0.1678  0.3141 -0.2747
  384UNK    C01 3449  27.075   0.503  14.109  0.1208  0.6162  0.3615
  384UNK    H02 3450  27.161   0.496  14.042 -0.0510 -1.0704  0.2909
  384UNK    C03 3451  26.971   0.422  14.097 -0.3013 -0.4756  0.1459
  384UNK    C04 3452  26.878   0.437  13.986  0.5404 -0.3102  0.0019
  384UNK    F05 3453  26.867   0.567  13.950  0.1319  0.7256  0.0960
  384UNK    F06 3454  26.910   0.356  13.876  0.1270 -0.3660  0.1914
  384UNK    F07 3455  26.757   0.394  14.022 -0.3213  0.1655 -0.4656
  384UNK    H08 3456  26.918   0.401  14.188  0.1775  2.0857  1.0644
  385UNK    F00 3457  27.499   2.482   4.739 -0.8984  0.4762 -0.3842
  385UNK    C01 3458  27.569   2.555   4.650  0.0656 -0.7103  0.1783
  385UNK    H02 3459  27.667   2.511   4.632  0.3495 -0.1513  0.3510
  385UNK    C03 3460  27.550   2.687   4.629 -0.1355 -0.1923  0.1251
  385UNK    C04 3461  27.602   2.752   4.507  0.6447 -0.1169  0.4077
  385UNK    F05 3462  27.535   2.712   4.403  0.0869  0.7876  0.4463
  385UNK    F06 3463  27.589   2.883   4.496  0.3020 -0.6763 -0.2072
  385UNK    F07 3464  27.732   2.717   4.485 -0.0371 -0.3929 -0.2370
  385UNK    H08 3465  27.548   2.751   4.716 -3.1290  0.6937 -0.5370
  386UNK    F00 3466  28.492   3.753   6.193 -0.0964  0.4602 -0.2891
  386UNK    C01 3467  28.527   3.783   6.069 -0.2129  0.2422  0.6673
  386UNK    H02 3468  28.522   3.889   6.045 -0.7760  0.1047  0.1981
  386UNK    C03 3469  28.561   3.678   5.992  0.1378 -0.4082 -0.1853
  386UNK    C04 3470  28.460   3.571   5.968  0.3182 -0.3385 -0.2513
  386UNK    F05 3471  28.404   3.510   6.077 -0.6597  0.3505  0.3570
  386UNK    F06 3472  28.361   3.621   5.883  0.9428  0.8121  0.6440
  386UNK    F07 3473  28.533   3.478   5.905 -0.2904 -0.0835 -0.4952
  386UNK    H08 3474  28.662   3.638   5.991 -0.6866 -2.5456 -0.3852
  387UNK    F00 3475  28.947   3.114   4.735 -0.4191  0.3973  0.2740
  387UNK    C01 3476  28.835   3.173   4.761  0.6929  0.6734 -0.3092
  387UNK    H02 3477  28.753   3.141   4.697 -1.3713  1.3323  1.9182
  387UNK    C03 3478  28.830   3.245   4.873 -0.6294  0.2395  0.1115
  387UNK    C04 3479  28.712   3.291   4.944 -0.3314 -0.5875  0.6213
  387UNK    F05 3480  28.743   3.392   5.028  0.0404  0.1806 -0.0840
  387UNK    F06 3481  28.616   3.348   4.863  0.0733 -0.0925  0.3521
  387UNK    F07 3482  28.642   3.201   5.017 -0.6245  0.5183  0.0915
  387UNK    H08 3483  28.911   3.236   4.943  0.4085 -3.0600 -1.4088
  388UNK    F00 3484  25.797   3.883   2.704  0.0387  0.0259  0.0591
  388UNK    C01 3485  25.888   3.779   2.704  0.6682 -0.0980 -0.0451
  388UNK    H02 3486  25.873   3.694   2.770  3.4760  0.3989  1.3244
  388UNK    C03 3487  25.998   3.787   2.629  0.4388 -0.2972  0.3039
  388UNK    C04 3488  26.113   3.859   2.682 -0.6041 -0.5530 -0.2041
  388UNK    F05 3489  26.148   3.802   2.801  0.1034  0.0122 -0.6396
  388UNK    F06 3490  26.216   3.825   2.602 -0.3038  0.2103 -0.0022
  388UNK    F07 3491  26.099   3.987   2.714 -0.1656  0.0642  0.0074
  388UNK    H08 3492  25.985   3.812   2.525  0.6761 -1.3328  0.0231
  389UNK    F00 3493  26.366   1.706   4.038 -0.0402  0.2785  0.3412
  389UNK    C01 3494  26.462   1.720   3.940  0.3574  0.8634 -0.3254
  389UNK    H02 3495  26.509   1.817   3.956  2.2620 -0.4697  2.5347
  389UNK    C03 3496  26.450   1.640   3.834 -0.8388  0.6475  0.1817
  389UNK    C04 3497  26.346   1.653   3.729 -0.2242 -0.2659  0.3373
  389UNK    F05 3498  26.322   1.531   3.677 -0.5938  0.0147 -0.3545
  389UNK    F06 3499  26.229   1.701   3.776 -0.7955  0.3789 -0.2949
  389UNK    F07 3500  26.390   1.736   3.631  0.3566 -0.3233  0.5610
  389UNK    H08 3501  26.474   1.535   3.844 -0.5779  0.6931  0.0136
  390UNK    F00 3502  26.602   4.008   5.379  0.0916 -0.7409  0.1995
  390UNK    C01 3503  26.523   3.998   5.489 -0.0730 -0.4674 -0.0941
  390UNK    H02 3504  26.459   3.910   5.481  1.0759 -1.4720  1.5720
  390UNK    C03 3505  26.529   4.082   5.592  0.5340  0.9541 -0.3744
  390UNK    C04 3506  26.552   4.226   5.569  0.9503 -0.1160 -0.3071
  390UNK    F05 3507  26.656   4.261   5.497 -0.3867  0.1293  0.1988
  390UNK    F06 3508  26.450   4.268   5.499  0.0443 -0.1964  0.2788
  390UNK    F07 3509  26.556   4.288   5.686  0.1911 -0.1893 -0.2774
  390UNK    H08 3510  26.501   4.053   5.692 -4.1975 -0.4525 -1.9985
  391UNK    F00 3511  26.571   4.541   4.606  0.0639  0.0336  0.1855
  391UNK    C01 3512  26.495   4.563   4.711 -0.0228  0.5165  0.3828
  391UNK    H02 3513  26.430   4.479   4.732 -1.1628  1.1342 -0.6086
  391UNK    C03 3514  26.543   4.647   4.802 -0.3745  0.0876 -0.2075
  391UNK    C04 3515  26.681   4.652   4.857 -0.7349  0.8995 -0.2504
  391UNK    F05 3516  26.688   4.737   4.966  0.0831  0.1798 -0.0660
  391UNK    F06 3517  26.723   4.531   4.902 -0.3506 -0.0625  0.0032
  391UNK    F07 3518  26.770   4.707   4.770 -0.0579 -0.5132  0.0561
  391UNK    H08 3519  26.477   4.713   4.856  2.6265  1.6826  1.6718
  392UNK    F00 3520  26.241   4.486   4.320 -0.0175  0.2460 -0.3002
  392UNK    C01 3521  26.295   4.596   4.265 -0.7519  0.3657  0.2592
  392UNK    H02 3522  26.264   4.622   4.164 -1.9592 -2.5682 -0.1743
  392UNK    C03 3523  26.397   4.636   4.336  0.5767  0.3808  0.3163
  392UNK    C04 3524  26.441   4.767   4.371  0.6517 -0.1209 -0.6212
  392UNK    F05 3525  26.577   4.765   4.392  0.2459  0.6703  0.2066
  392UNK    F06 3526  26.433   4.853   4.268 -0.9883 -0.5681  0.5240
  392UNK    F07 3527  26.369   4.822   4.472  0.0102 -0.2746  0.1022
  392UNK    H08 3528  26.463   4.563   4.381 -0.8109 -1.6437 -0.8523
  393UNK    F00 3529  26.157   4.098   5.146  0.7792  0.4257 -0.0731
  393UNK    C01 3530  26.255   4.069   5.053 -0.6373 -0.1630 -0.6557
  393UNK    H02 3531  26.314   3.982   5.083 -0.1958 -1.3141 -4.6098
  393UNK    C03 3532  26.230   4.107   4.927  0.0510 -0.2609 -0.0500
  393UNK    C04 3533  26.256   4.018   4.817  0.0403  0.2847 -0.1806
  393UNK    F05 3534  26.153   3.940   4.803  0.7884  0.2890 -0.1242
  393UNK    F06 3535  26.257   4.096   4.708  0.0668 -0.2086  0.1593
  393UNK    F07 3536  26.371   3.951   4.837 -0.2975  0.0446  0.1770
  393UNK    H08 3537  26.155   4.183   4.911 -0.5797 -1.1293 -1.2408
  394UNK    F00 3538  28.307   3.393   5.273 -0.2128  0.2176  0.1123
  394UNK    C01 3539  28.216   3.350   5.365 -0.3920  0.0806 -0.2457
  394UNK    H02 3540  28.247   3.374   5.467  1.3395  2.2901 -1.2641
  394UNK    C03 3541  28.094   3.297   5.326  0.6090 -0.0385 -0.0563
  394UNK    C04 3542  28.047   3.159   5.322 -0.1164  0.1400  0.2327
  394UNK    F05 3543  28.154   3.079   5.306 -0.3153 -0.0291  0.1189
  394UNK    F06 3544  27.987   3.123   5.437  0.5782  0.1103  0.1566
  394UNK    F07 3545  27.972   3.148   5.208  0.1279 -0.4289 -0.1020
  394UNK    H08 3546  28.014   3.361   5.294  0.2439 -0.8245 -0.7244
  395UNK    F00 3547  22.922   0.896   6.749  0.2873 -0.3978 -0.1324
  395UNK    C01 3548  23.000   0.883   6.641 -0.8251  0.4018 -0.6447
  395UNK    H02 3549  23.075   0.807   6.661 -1.8632 -0.9556 -1.7877
  395UNK    C03 3550  23.003   0.977   6.549  0.1913 -0.7489  0.6539
  395UNK    C04 3551  23.076   1.102   6.551  0.4279  0.3693  0.8644
  395UNK    F05 3552  23.072   1.152   6.678 -0.2197 -0.2970  0.0586
  395UNK    F06 3553  23.213   1.088   6.524 -0.3017 -0.1333 -0.1451
  395UNK    F07 3554  23.027   1.194   6.471 -0.0043  0.1348  0.0517
  395UNK    H08 3555  22.982   0.960   6.444 -1.4200  0.6498  0.7358
  396UNK    F00 3556  24.899   3.454   5.654 -0.5111  0.2010  0.3642
  396UNK    C01 3557  24.989   3.375   5.614 -0.9420 -0.1229  0.0220
  396UNK    H02 3558  24.992   3.276   5.661 -0.4763  1.0498  2.5133
  396UNK    C03 3559  25.066   3.417   5.514  0.0576 -0.0868  0.3415
  396UNK    C04 3560  25.175   3.511   5.537 -0.5107 -0.4965 -0.4478
  396UNK    F05 3561  25.262   3.455   5.621 -0.1958 -0.4327  0.2716
  396UNK    F06 3562  25.248   3.534   5.420  0.0677  0.3291 -0.0673
  396UNK    F07 3563  25.139   3.637   5.585  0.0673 -0.0755 -0.0327
  396UNK    H08 3564  25.076   3.359   5.424 -1.1870  2.4616 -1.5292
  397UNK    F00 3565  24.645   5.037   1.073  0.3217  0.1522 -0.0573
  397UNK    C01 3566  24.638   5.142   1.156  0.9259 -0.1054 -0.4097
  397UNK    H02 3567  24.596   5.119   1.254 -0.3710  1.8740 -0.4727
  397UNK    C03 3568  24.730   5.237   1.135 -0.4515 -1.1244 -0.0103
  397UNK    C04 3569  24.865   5.208   1.178 -1.0602 -0.0122 -0.5429
  397UNK    F05 3570  24.863   5.155   1.298  0.5596  0.7777 -0.3946
  397UNK    F06 3571  24.932   5.130   1.092  0.2782 -0.1854 -0.3231
  397UNK    F07 3572  24.933   5.325   1.180  0.2027  0.6631  0.6030
  397UNK    H08 3573  24.709   5.320   1.069  0.2060 -0.2328  0.8855
  398UNK    F00 3574  26.135   2.191   6.120 -0.3810 -0.1483  0.1521
  398UNK    C01 3575  26.077   2.100   6.193 -0.1292  0.6057  0.1141
  398UNK    H02 3576  26.021   2.147   6.273  0.1859 -0.0539  0.7275
  398UNK    C03 3577  26.102   1.975   6.170 -0.6636  0.5081 -0.3829
  398UNK    C04 3578  26.226   1.904   6.212 -0.2389 -0.2416  0.3242
  398UNK    F05 3579  26.242   1.911   6.343  0.3736  0.2639 -0.4335
  398UNK    F06 3580  26.213   1.771   6.183 -0.0469 -0.2571 -0.0184
  398UNK    F07 3581  26.328   1.945   6.138  0.1729  0.4100  0.0945
  398UNK    H08 3582  26.035   1.914   6.110 -1.6335  0.6469  0.5414
  399UNK    F00 3583  25.031   4.003   4.905  0.1189  0.3416  0.6189
  399UNK    C01 3584  25.135   3.995   4.991 -0.0746  0.3784 -0.0274
  399UNK    H02 3585  25.172   4.094   5.019 -0.7808  0.6669 -0.1136
  399UNK    C03 3586  25.210   3.885   4.993 -0.0177 -0.0011  0.1544
  399UNK    C04 3587  25.329   3.877   4.909  0.6004 -0.0796 -0.2307
  399UNK    F05 3588  25.307   3.954   4.797  0.4380 -0.1545 -0.1945
  399UNK    F06 3589  25.443   3.908   4.979 -0.1093 -0.0238 -0.1837
  399UNK    F07 3590  25.344   3.745   4.876  0.2297 -0.2228  0.2025
  399UNK    H08 3591  25.185   3.801   5.056 -1.7202  2.0318  2.2873
  400UNK    F00 3592  24.261   1.420   5.287 -0.0415  0.4131  0.8082
  400UNK    C01 3593  24.168   1.359   5.213  0.0637 -0.2658  0.4830
  400UNK    H02 3594  24.075   1.339   5.265 -1.3617  0.2647 -1.8060
  400UNK    C03 3595  24.215   1.270   5.125  0.3856  0.3120  0.2000
  400UNK    C04 3596  24.147   1.215   5.006 -0.0391 -0.0789 -0.2009
  400UNK    F05 3597  24.020   1.190   5.039 -0.0155  0.0757  0.2025
  400UNK    F06 3598  24.155   1.304   4.899 -0.1996  0.0184 -0.0223
  400UNK    F07 3599  24.210   1.098   4.980 -0.3995  0.0457 -0.3027
  400UNK    H08 3600  24.301   1.210   5.151 -0.2914 -1.2107 -0.9533
  401UNK    F00 3601  27.525   4.219   4.909  0.0682  0.7049  0.4121
  401UNK    C01 3602  27.532   4.102   4.976  0.0335 -0.2109 -0.2071
  401UNK    H02 3603  27.632   4.078   5.011  0.3911 -0.2698 -1.2534
  401UNK    C03 3604  27.420   4.037   5.003  0.4251  0.0282 -0.0165
  401UNK    C04 3605  27.363   3.946   4.900 -0.0797  0.4056  0.3475
  401UNK    F05 3606  27.364   4.015   4.782  0.0303  0.6785  0.2348
  401UNK    F06 3607  27.427   3.824   4.895 -0.0901 -0.5906 -0.2831
  401UNK    F07 3608  27.234   3.919   4.932  0.2504 -0.1324 -0.1510
  401UNK    H08 3609  27.340   4.071   5.068  1.8717  0.6537  1.4707
  402UNK    F00 3610  25.054   1.576   4.595 -0.6822  0.0665  0.0288
  402UNK    C01 3611  24.940   1.587   4.666 -0.4613  0.5493 -0.3888
  402UNK    H02 3612  24.851   1.617   4.611 -0.5975  0.5579 -0.1642
  402UNK    C03 3613  24.949   1.585   4.796  0.2708 -0.2906 -0.5769
  402UNK    C04 3614  24.847   1.543   4.892 -0.3438  0.0891 -0.4837
  402UNK    F05 3615  24.723   1.564   4.848  0.1116 -0.3517  0.2342
  402UNK    F06 3616  24.860   1.412   4.931  0.0541  0.1715 -0.5651
  402UNK    F07 3617  24.855   1.614   5.005  0.3143  0.2504  0.6040
  402UNK    H08 3618  25.026   1.639   4.849  0.4559 -0.4696 -0.6682
  403UNK    F00 3619  24.334   3.973   5.574 -0.1324 -0.0200  0.4095
  403UNK    C01 3620  24.425   4.053   5.509  0.4336  0.3381 -0.4126
  403UNK    H02 3621  24.520   4.041   5.560 -0.5064 -0.3635  1.2309
  403UNK    C03 3622  24.390   4.102   5.389  0.2976 -0.4028 -0.1488
  403UNK    C04 3623  24.481   4.164   5.295 -0.0919  0.4254  0.2600
  403UNK    F05 3624  24.583   4.234   5.358  0.7765 -0.0344  0.2676
  403UNK    F06 3625  24.536   4.066   5.216  0.1292  0.2528  0.2279
  403UNK    F07 3626  24.408   4.242   5.214  0.4474  0.1907  1.0709
  403UNK    H08 3627  24.286   4.101   5.363  0.0692 -2.3608  0.6846
  404UNK    F00 3628  24.275   0.061   4.718  0.1055 -0.5021 -0.1183
  404UNK    C01 3629  24.360   0.113   4.807  0.1153  0.1988  0.0530
  404UNK    H02 3630  24.353   0.222   4.800 -0.8035  0.0599 -1.6306
  404UNK    C03 3631  24.466   0.036   4.851  0.0548 -0.6867 -0.7201
  404UNK    C04 3632  24.555   0.065   4.965 -0.1800  0.2201 -0.0637
  404UNK    F05 3633  24.571   0.200   4.960  0.1226 -0.6062  0.0198
  404UNK    F06 3634  24.518   0.038   5.092  0.5006 -0.3023 -0.3085
  404UNK    F07 3635  24.674  -0.002   4.952 -0.4852  0.1763 -0.8115
  404UNK    H08 3636  24.512  -0.035   4.784  0.3368 -1.7097  0.5508
  405UNK    F00 3637  25.203   2.102   4.703 -0.1651 -0.0393  0.8155
  405UNK    C01 3638  25.270   2.114   4.820  0.6452  0.7505  1.2139
  405UNK    H02 3639  25.229   2.197   4.876  2.8522  1.1382  2.3124
  405UNK    C03 3640  25.388   2.054   4.844 -0.0445  0.7583 -0.3633
  405UNK    C04 3641  25.525   2.099   4.801  0.2172  0.4730  0.2779
  405UNK    F05 3642  25.613   1.997   4.793 -0.3343 -0.5189  0.0144
  405UNK    F06 3643  25.507   2.158   4.680  0.3347  0.1949 -0.0285
  405UNK    F07 3644  25.576   2.202   4.885 -0.0410  0.0278 -0.2089
  405UNK    H08 3645  25.385   1.952   4.879  0.6884  0.6095 -0.7151
  406UNK    F00 3646  25.364   3.004   4.534 -0.0975 -0.3283 -0.0520
  406UNK    C01 3647  25.425   3.122   4.533  0.2569  0.2271  0.5891
  406UNK    H02 3648  25.527   3.114   4.569 -0.0002  3.6460  2.3357
  406UNK    C03 3649  25.355   3.234   4.497  0.4387  0.9306  0.3282
  406UNK    C04 3650  25.420   3.346   4.424 -0.2255  0.4521  0.4958
  406UNK    F05 3651  25.365   3.459   4.470 -0.1152 -0.5354 -0.0871
  406UNK    F06 3652  25.557   3.352   4.444  0.5819 -0.0993 -0.0566
  406UNK    F07 3653  25.401   3.323   4.293  0.2711  0.1949  0.4876
  406UNK    H08 3654  25.248   3.244   4.505  0.1410 -0.5302 -1.4323
  407UNK    F00 3655  26.831   4.028   4.713  0.2701 -0.2101  0.0546
  407UNK    C01 3656  26.950   3.983   4.750 -0.0411 -0.1686 -0.3011
  407UNK    H02 3657  26.956   3.948   4.853 -0.0759 -0.1008 -0.2757
  407UNK    C03 3658  27.040   4.054   4.687  0.5920 -0.1448 -0.0644
  407UNK    C04 3659  27.077   4.190   4.733 -0.1505  0.6024  0.6396
  407UNK    F05 3660  27.131   4.181   4.861 -0.2503 -0.1829 -0.0497
  407UNK    F06 3661  27.173   4.240   4.649 -0.3328  0.1182  0.0336
  407UNK    F07 3662  26.972   4.273   4.727 -0.1216  0.1086  0.4453
  407UNK    H08 3663  27.076   4.032   4.588  0.2647  1.4277 -0.5407
  408UNK    F00 3664  25.854   4.884   3.600  0.1100  0.3635  0.3596
  408UNK    C01 3665  25.939   4.800   3.657  0.0553  0.1954  0.3067
  408UNK    H02 3666  25.974   4.838   3.753  0.8355  0.1424  0.0452
  408UNK    C03 3667  25.951   4.677   3.601 -0.0164  0.2421  0.8340
  408UNK    C04 3668  25.856   4.614   3.501  0.4510  0.2080  0.0115
  408UNK    F05 3669  25.881   4.656   3.381  0.4887  0.2207 -0.2042
  408UNK    F06 3670  25.861   4.478   3.508 -0.1525  0.1069  0.1912
  408UNK    F07 3671  25.732   4.637   3.548 -0.1543 -0.0071  0.6310
  408UNK    H08 3672  26.034   4.615   3.631  1.7080  1.8418 -0.4952
  409UNK    F00 3673  25.809   2.254   4.595 -0.1381  0.2554  0.2283
  409UNK    C01 3674  25.790   2.161   4.500  0.1998  0.7019 -0.3603
  409UNK    H02 3675  25.769   2.194   4.399 -0.5480  0.4345 -0.3028
  409UNK    C03 3676  25.814   2.037   4.542  0.1108 -0.3895 -0.4240
  409UNK    C04 3677  25.884   1.941   4.461 -0.0831  0.0031  0.4081
  409UNK    F05 3678  25.978   1.984   4.380 -0.4264 -0.1067 -0.1987
  409UNK    F06 3679  25.955   1.846   4.528 -0.4448 -0.1968 -0.2455
  409UNK    F07 3680  25.792   1.867   4.387 -0.0755 -0.0775 -0.3268
  409UNK    H08 3681  25.750   1.981   4.609  1.8116  0.1804  1.7607
  410UNK    F00 3682  25.489   0.219   4.013 -0.4372  0.2105  0.2039
  410UNK    C01 3683  25.594   0.260   3.945 -0.1072  0.3904 -0.8164
  410UNK    H02 3684  25.686   0.263   4.003 -1.5551 -1.5077  1.6590
  410UNK    C03 3685  25.575   0.315   3.826  0.0746  0.2372 -0.6955
  410UNK    C04 3686  25.675   0.328   3.719  0.4729 -0.3798  0.2779
  410UNK    F05 3687  25.613   0.378   3.611 -0.3793  0.3388  0.5733
  410UNK    F06 3688  25.759   0.425   3.760  0.1314 -0.1228 -0.2820
  410UNK    F07 3689  25.735   0.214   3.690 -0.6131 -0.4514  0.4394
  410UNK    H08 3690  25.474   0.322   3.788 -1.0897 -2.2434  1.7819
  411UNK    F00 3691  22.288   3.952   6.553 -0.1544  0.5432  0.3461
  411UNK    C01 3692  22.296   3.949   6.420 -0.2832 -0.1710 -0.6070
  411UNK    H02 3693  22.366   3.873   6.386  0.1755 -0.1763  0.3461
  411UNK    C03 3694  22.240   4.050   6.354  0.8915  0.2659 -0.8650
  411UNK    C04 3695  22.250   4.068   6.209 -0.6108  0.0592  0.0328
  411UNK    F05 3696  22.244   4.192   6.164 -0.0760 -0.0200 -0.0447
  411UNK    F06 3697  22.368   4.030   6.158 -0.0346  0.1333 -0.5540
  411UNK    F07 3698  22.165   3.993   6.142  0.1908  0.1556  0.0605
  411UNK    H08 3699  22.173   4.116   6.407  1.2626  0.5281 -0.7260
  412UNK    F00 3700  26.568   2.503   4.315  0.1435  0.0505 -0.3311
  412UNK    C01 3701  26.508   2.563   4.416  0.6947 -0.2214 -0.3172
  412UNK    H02 3702  26.480   2.491   4.493  0.7215  1.0269  0.8864
  412UNK    C03 3703  26.545   2.683   4.446  0.7111  0.7798  0.3776
  412UNK    C04 3704  26.539   2.751   4.580  0.2702  0.1850 -0.4809
  412UNK    F05 3705  26.649   2.722   4.653  0.6843 -0.2206 -0.4605
  412UNK    F06 3706  26.526   2.883   4.565  0.1318 -0.3383 -0.2057
  412UNK    F07 3707  26.427   2.723   4.649  0.2958  0.2554  0.6953
  412UNK    H08 3708  26.628   2.728   4.394  0.5325 -1.2222 -1.7086
  413UNK    F00 3709  29.516   4.254   4.848 -0.1556  0.0644  0.4800
  413UNK    C01 3710  29.595   4.238   4.950  0.2835  0.8071  0.0194
  413UNK    H02 3711  29.702   4.234   4.931  0.2037 -4.5150 -0.1551
  413UNK    C03 3712  29.544   4.299   5.057  0.1489  0.0770  0.5565
  413UNK    C04 3713  29.626   4.330   5.172 -0.5292 -0.0410  0.2662
  413UNK    F05 3714  29.552   4.365   5.279 -0.0053 -0.4195  0.0611
  413UNK    F06 3715  29.694   4.219   5.205 -0.2941 -0.3791  0.4509
  413UNK    F07 3716  29.709   4.433   5.146 -0.4154  0.1768  0.2123
  413UNK    H08 3717  29.469   4.376   5.045  1.3459  1.2542  0.5016
  414UNK    F00 3718  26.889   1.242   4.179 -0.3193  0.2806  0.4327
  414UNK    C01 3719  26.998   1.250   4.108  0.1642 -0.6051  0.2832
  414UNK    H02 3720  27.080   1.296   4.164 -0.6738  2.9940 -1.3030
  414UNK    C03 3721  27.009   1.189   3.993 -0.4111  0.3482  0.3283
  414UNK    C04 3722  27.142   1.160   3.935  0.4160  0.3720 -0.1599
  414UNK    F05 3723  27.147   1.188   3.800  0.5380 -0.3132 -0.9069
  414UNK    F06 3724  27.239   1.244   3.984  0.0020 -0.0775 -0.1481
  414UNK    F07 3725  27.172   1.027   3.949  0.1801 -0.2850 -0.2546
  414UNK    H08 3726  26.926   1.185   3.923 -0.9160 -2.1456  1.0092
  415UNK    F00 3727  26.007   3.999   4.353 -0.3223  0.2003 -0.7135
  415UNK    C01 3728  26.130   3.989   4.305  0.0199  0.4282 -0.2711
  415UNK    H02 3729  26.132   3.942   4.206 -0.2988  0.7842 -0.4448
  415UNK    C03 3730  26.230   4.017   4.389  0.1275 -0.0154  0.1601
  415UNK    C04 3731  26.358   4.084   4.347  0.3611 -0.7497 -0.4811
  415UNK    F05 3732  26.336   4.216   4.335  0.0411 -0.2568 -0.3835
  415UNK    F06 3733  26.440   4.066   4.454  0.0573  0.0888  0.2087
  415UNK    F07 3734  26.417   4.026   4.239  0.0314 -0.4813 -0.2728
  415UNK    H08 3735  26.193   4.042   4.487 -0.1251 -0.7795  0.2664
  416UNK    F00 3736  24.482   1.582   3.380 -0.3682 -0.0025 -1.0024
  416UNK    C01 3737  24.593   1.653   3.403  0.1060 -0.1471 -0.7536
  416UNK    H02 3738  24.678   1.609   3.351  0.0413  0.8767 -1.7485
  416UNK    C03 3739  24.590   1.776   3.450 -0.3316 -0.8475 -0.1317
  416UNK    C04 3740  24.627   1.791   3.590 -0.4260  0.9189  0.2885
  416UNK    F05 3741  24.749   1.733   3.614  0.1831 -0.0695 -0.3924
  416UNK    F06 3742  24.636   1.925   3.597 -0.1804 -0.2055  0.5046
  416UNK    F07 3743  24.541   1.735   3.680  0.1877 -0.1557  0.2925
  416UNK    H08 3744  24.505   1.836   3.418 -0.8918 -2.4359 -1.6691
  417UNK    F00 3745  26.756   2.480   3.936 -0.1903 -0.0173 -0.4614
  417UNK    C01 3746  26.817   2.593   3.899 -0.0574  0.4304 -0.8248
  417UNK    H02 3747  26.844   2.592   3.793  0.0660  0.3266 -0.7928
  417UNK    C03 3748  26.887   2.656   3.994 -0.1001 -0.0080 -0.4886
  417UNK    C04 3749  26.950   2.782   3.968  0.3591 -0.0459  0.2482
  417UNK    F05 3750  27.039   2.820   4.064 -0.1935  0.1020 -0.0409
  417UNK    F06 3751  27.019   2.772   3.852  0.0707  0.1105  0.2109
  417UNK    F07 3752  26.855   2.879   3.945  0.3102  0.0634  0.0920
  417UNK    H08 3753  26.914   2.614   4.090  1.1143  2.1842  0.1850
  418UNK    F00 3754  26.558   0.182   3.363 -0.2223  0.4654 -0.1581
  418UNK    C01 3755  26.465   0.240   3.435 -0.0532 -0.7255  0.0890
  418UNK    H02 3756  26.427   0.172   3.511  0.5854 -1.7752 -0.5243
  418UNK    C03 3757  26.479   0.370   3.445 -0.6825 -0.7517 -0.1205
  418UNK    C04 3758  26.591   0.429   3.512 -0.5908  0.0675  0.4982
  418UNK    F05 3759  26.576   0.557   3.541 -0.1679  0.5401 -0.0978
  418UNK    F06 3760  26.621   0.372   3.629 -0.3160  0.4375 -0.0855
  418UNK    F07 3761  26.704   0.408   3.441  0.6034  0.0232  0.1142
  418UNK    H08 3762  26.399   0.429   3.404  1.9669  2.1990 -1.2947
  419UNK    F00 3763  27.392   3.404   4.643  0.2466  0.5142 -0.0492
  419UNK    C01 3764  27.389   3.295   4.722  0.0867  0.6955 -0.1339
  419UNK    H02 3765  27.321   3.307   4.807  0.7646  0.5064  0.4382
  419UNK    C03 3766  27.493   3.210   4.716 -0.4641 -0.2509 -0.4321
  419UNK    C04 3767  27.492   3.079   4.773  0.7513 -0.4963 -0.3924
  419UNK    F05 3768  27.440   2.991   4.688  0.8305 -0.1465 -0.2337
  419UNK    F06 3769  27.624   3.049   4.810  0.5410  0.0613  0.2115
  419UNK    F07 3770  27.420   3.080   4.892  0.2123 -0.1083  0.5231
  419UNK    H08 3771  27.563   3.229   4.636 -0.6352  0.1436 -0.4856
  420UNK    F00 3772  38.287   4.424   6.573  0.0707  0.1434  0.1417
  420UNK    C01 3773  38.224   4.473   6.675  0.1366 -0.3136 -0.0308
  420UNK    H02 3774  38.300   4.497   6.751 -1.2239  0.5455  1.0812
  420UNK    C03 3775  38.089   4.470   6.691 -0.5165  0.2833  0.4946
  420UNK    C04 3776  38.030   4.356   6.760  1.1566 -0.2604 -0.4122
  420UNK    F05 3777  37.900   4.349   6.721  0.1269 -0.9649  0.1411
  420UNK    F06 3778  38.093   4.241   6.716  0.7455  0.0979 -0.4359
  420UNK    F07 3779  38.038   4.363   6.896  0.5345  0.3995  0.1694
  420UNK    H08 3780  38.023   4.507   6.614 -0.4092 -1.3834 -0.4316
  421UNK    F00 3781  24.505   1.702   5.524 -0.0462 -0.1763 -0.1373
  421UNK    C01 3782  24.522   1.721   5.652 -0.1107  0.3450 -0.3016
  421UNK    H02 3783  24.428   1.736   5.705  1.6827  0.4223  2.9700
  421UNK    C03 3784  24.646   1.744   5.693  0.4146  0.3295 -0.1595
  421UNK    C04 3785  24.704   1.673   5.808  0.6856  1.0787 -0.8896
  421UNK    F05 3786  24.784   1.577   5.763 -0.0491 -0.1749 -0.1545
  421UNK    F06 3787  24.776   1.760   5.888  0.1144 -0.0447  0.2323
  421UNK    F07 3788  24.605   1.628   5.889  0.0263 -0.4346  0.7440
  421UNK    H08 3789  24.722   1.772   5.623  0.0090  1.3722 -0.1946
  422UNK    F00 3790  26.269   2.292   5.011 -0.0960 -0.0667  0.5649
  422UNK    C01 3791  26.318   2.376   5.097 -0.0495 -0.0640  0.4012
  422UNK    H02 3792  26.426   2.362   5.097 -0.1570 -0.9582  2.0412
  422UNK    C03 3793  26.240   2.457   5.163  0.0903  0.0514 -0.7485
  422UNK    C04 3794  26.169   2.416   5.284 -0.2802 -0.5366 -0.3721
  422UNK    F05 3795  26.040   2.453   5.281 -0.5979  0.0418  0.1136
  422UNK    F06 3796  26.177   2.281   5.293 -0.1738 -0.0660  0.4856
  422UNK    F07 3797  26.224   2.459   5.398  0.0291  0.2187 -0.4323
  422UNK    H08 3798  26.259   2.563   5.151 -1.2514  0.1152 -2.5740
  423UNK    F00 3799  25.148   4.787   4.585 -0.2531  0.3967  0.3992
  423UNK    C01 3800  25.192   4.854   4.696  0.5123 -0.1532  0.2843
  423UNK    H02 3801  25.172   4.787   4.780 -0.2850 -0.1749  0.0819
  423UNK    C03 3802  25.205   4.984   4.688  0.1550  0.2453 -0.0401
  423UNK    C04 3803  25.275   5.049   4.575 -0.0750 -0.0818 -0.0518
  423UNK    F05 3804  25.371   4.970   4.526 -0.3983 -0.0992  0.0073
  423UNK    F06 3805  25.192   5.073   4.467 -0.2664  0.0625  1.0826
  423UNK    F07 3806  25.324   5.172   4.604  0.0567  0.0476 -0.1948
  423UNK    H08 3807  25.135   5.054   4.730 -1.0273 -0.6617 -0.4621
  424UNK    F00 3808  27.734   4.196   5.691  0.2038 -0.1653 -0.1801
  424UNK    C01 3809  27.685   4.287   5.606  0.0744  0.0490 -0.3166
  424UNK    H02 3810  27.753   4.368   5.578 -0.1806  0.1896 -0.5349
  424UNK    C03 3811  27.559   4.279   5.563  0.1980 -0.2936 -0.3850
  424UNK    C04 3812  27.514   4.318   5.428 -0.1534 -0.0814  0.3164
  424UNK    F05 3813  27.381   4.339   5.418  0.2736  0.1302 -0.5038
  424UNK    F06 3814  27.573   4.437   5.392  0.3575  0.6529  0.1129
  424UNK    F07 3815  27.554   4.238   5.325  0.2757 -0.4493 -0.3708
  424UNK    H08 3816  27.508   4.194   5.606 -1.1359  0.5526 -0.2788
  425UNK    F00 3817  28.749   0.064   5.850  0.2484 -0.1738 -0.2053
  425UNK    C01 3818  28.794   0.091   5.727 -0.7539  0.2018 -0.5713
  425UNK    H02 3819  28.706   0.136   5.681 -1.6999 -0.0423  0.9804
  425UNK    C03 3820  28.883   0.002   5.681  0.3044  0.0112  0.8706
  425UNK    C04 3821  28.851  -0.124   5.613 -0.1567  0.4492  1.2361
  425UNK    F05 3822  28.837  -0.114   5.479 -0.0052  0.6034  0.4660
  425UNK    F06 3823  28.942  -0.221   5.637  0.1633 -0.2122 -0.0279
  425UNK    F07 3824  28.733  -0.174   5.655  0.0996 -0.3244 -0.6709
  425UNK    H08 3825  28.984   0.006   5.719  0.1077 -2.0840  1.6946
  426UNK    F00 3826  25.520   4.427   3.396  0.0139 -0.5476  0.4890
  426UNK    C01 3827  25.467   4.305   3.431  0.0932  0.2611  0.1287
  426UNK    H02 3828  25.394   4.326   3.510 -1.5807 -1.9598 -0.7919
  426UNK    C03 3829  25.476   4.204   3.345  0.1971 -0.9864  0.2302
  426UNK    C04 3830  25.401   4.078   3.379 -0.2229 -0.1354 -0.3933
  426UNK    F05 3831  25.401   4.060   3.517 -0.1937  0.1627 -0.3764
  426UNK    F06 3832  25.275   4.080   3.332  0.0349  0.1526 -0.6026
  426UNK    F07 3833  25.454   3.969   3.316 -0.2211 -0.5269 -1.0873
  426UNK    H08 3834  25.566   4.186   3.288 -1.0453  1.6736 -2.7914
  427UNK    F00 3835  26.298   3.717   1.200  0.1246 -0.1423 -0.0135
  427UNK    C01 3836  26.275   3.795   1.092  0.1116  0.5418 -0.4321
  427UNK    H02 3837  26.357   3.789   1.019  0.8000  0.7036  0.3258
  427UNK    C03 3838  26.189   3.893   1.117 -0.2310  0.0441  0.2460
  427UNK    C04 3839  26.128   3.990   1.028  0.0463 -0.1607  0.6845
  427UNK    F05 3840  26.032   3.933   0.950 -0.2320 -0.3746 -0.5433
  427UNK    F06 3841  26.085   4.094   1.104  0.0446  0.2203  0.2905
  427UNK    F07 3842  26.219   4.038   0.945 -0.5144  0.6329  0.1193
  427UNK    H08 3843  26.127   3.873   1.203  0.2245  2.4471  1.1854
  428UNK    F00 3844  18.824   1.240  10.839  0.3205 -0.0346  0.3144
  428UNK    C01 3845  18.752   1.220  10.959 -0.0222 -0.6253  0.5723
  428UNK    H02 3846  18.801   1.146  11.022  2.3855  0.6236  0.2346
  428UNK    C03 3847  18.628   1.269  10.969  0.1563 -0.1048 -0.5388
  428UNK    C04 3848  18.547   1.279  11.097 -1.0471 -0.0340 -0.2171
  428UNK    F05 3849  18.415   1.299  11.081 -0.4205  0.3563 -0.2501
  428UNK    F06 3850  18.562   1.177  11.190  0.1540 -0.1282 -0.3186
  428UNK    F07 3851  18.590   1.393  11.157  0.3421 -0.5019  0.2115
  428UNK    H08 3852  18.590   1.342  10.900  0.9441  1.1561  0.3444
  429UNK    F00 3853  20.060   2.811   1.715 -0.5811 -0.0602 -0.2949
  429UNK    C01 3854  20.031   2.807   1.847 -0.5502 -0.5775 -0.2808
  429UNK    H02 3855  20.114   2.828   1.914 -0.2874  0.2147 -0.8408
  429UNK    C03 3856  19.905   2.774   1.879 -0.8105  0.4888 -0.7759
  429UNK    C04 3857  19.865   2.765   2.022 -0.5017  0.3655 -0.1887
  429UNK    F05 3858  19.865   2.890   2.070  0.1694 -0.4684 -0.1719
  429UNK    F06 3859  19.747   2.700   2.046  0.1489  0.5053  0.2802
  429UNK    F07 3860  19.961   2.708   2.100  0.3266  0.3693 -0.0715
  429UNK    H08 3861  19.829   2.779   1.803 -0.5105  0.9955 -1.0450
  430UNK    F00 3862  27.029   2.619   3.212 -0.0876  0.2111 -0.5059
  430UNK    C01 3863  27.079   2.706   3.125  0.3405 -0.2216  0.6973
  430UNK    H02 3864  27.164   2.760   3.168  0.4919 -0.3676  0.5856
  430UNK    C03 3865  27.042   2.706   3.000  0.2374  0.7159 -0.8091
  430UNK    C04 3866  27.097   2.792   2.894 -0.0749  0.9834 -0.2884
  430UNK    F05 3867  27.164   2.707   2.818  0.1228  0.2669 -0.3130
  430UNK    F06 3868  27.004   2.858   2.819  0.2159  0.0116  0.0456
  430UNK    F07 3869  27.181   2.886   2.940  0.7546  0.1888  0.2852
  430UNK    H08 3870  26.946   2.661   2.978 -0.5321  1.7081  0.4633
  431UNK    F00 3871  27.521   0.335   4.788  0.0539 -0.1976 -0.0303
  431UNK    C01 3872  27.457   0.260   4.874  0.1939  0.2407 -0.0134
  431UNK    H02 3873  27.434   0.162   4.832  2.7718  0.0215 -1.0106
  431UNK    C03 3874  27.453   0.295   5.001  0.5327 -0.2288 -0.4312
  431UNK    C04 3875  27.560   0.369   5.057  0.0676  0.3092  0.3780
  431UNK    F05 3876  27.675   0.307   5.025  0.3426  0.2736 -0.2303
  431UNK    F06 3877  27.571   0.493   5.011 -0.0268  0.1209  0.5805
  431UNK    F07 3878  27.559   0.387   5.196 -0.0335  0.1921 -0.0092
  431UNK    H08 3879  27.355   0.322   5.040  0.6751 -0.0927 -0.1638
  432UNK    F00 3880  23.632   4.911   5.947 -0.2098 -0.8023 -0.0307
  432UNK    C01 3881  23.547   4.973   6.030 -0.6207  0.3471  0.9542
  432UNK    H02 3882  23.523   4.907   6.114  0.3875 -0.2273  0.7926
  432UNK    C03 3883  23.477   5.084   5.995  0.4472 -0.0693  0.2448
  432UNK    C04 3884  23.367   5.087   5.900 -0.0748 -0.1813 -0.3647
  432UNK    F05 3885  23.363   5.203   5.833  0.5417 -0.0564 -0.0572
  432UNK    F06 3886  23.377   4.991   5.812  0.1854 -0.2265  0.0087
  432UNK    F07 3887  23.250   5.070   5.972 -0.1082  0.2756  0.3331
  432UNK    H08 3888  23.468   5.162   6.069 -1.3795  0.2060 -0.2593
  433UNK    F00 3889  25.936   4.255   5.236 -0.3859  0.4462  0.0859
  433UNK    C01 3890  25.867   4.282   5.124  0.0415  0.6865 -0.3947
  433UNK    H02 3891  25.879   4.207   5.046  0.1573 -0.4861  0.7231
  433UNK    C03 3892  25.839   4.412   5.109 -0.1215 -0.5512 -0.4893
  433UNK    C04 3893  25.768   4.488   5.211 -0.5467 -0.2154 -0.2708
  433UNK    F05 3894  25.643   4.513   5.160  0.1417  0.1437 -0.3637
  433UNK    F06 3895  25.733   4.423   5.323  0.3238 -0.2462  0.4107
  433UNK    F07 3896  25.835   4.602   5.251 -0.3270  0.4999  0.0195
  433UNK    H08 3897  25.891   4.477   5.040  0.5899 -1.6366 -0.9927
  434UNK    F00 3898  32.229   3.374   4.914 -0.4969 -0.3371 -0.0804
  434UNK    C01 3899  32.244   3.321   4.793 -0.5696 -0.2680  0.5309
  434UNK    H02 3900  32.212   3.217   4.789  1.4097 -0.8651 -0.2848
  434UNK    C03 3901  32.256   3.412   4.690  0.3222  0.5090 -0.5139
  434UNK    C04 3902  32.230   3.391   4.544 -0.4024  0.6486  0.0382
  434UNK    F05 3903  32.316   3.301   4.498 -0.3342 -0.3074  0.0677
  434UNK    F06 3904  32.100   3.359   4.521  0.2556  0.1263  0.6792
  434UNK    F07 3905  32.251   3.513   4.484  0.6510  0.4694  0.2263
  434UNK    H08 3906  32.227   3.515   4.705  1.4261  0.9408 -1.2819
  435UNK    F00 3907  25.586   0.287   5.777  0.2357  0.0736  0.0124
  435UNK    C01 3908  25.619   0.408   5.816 -0.8207 -0.4859 -0.1108
  435UNK    H02 3909  25.640   0.409   5.923 -0.9053  0.5850 -0.1019
  435UNK    C03 3910  25.635   0.507   5.732  0.3589  0.0564  0.2479
  435UNK    C04 3911  25.761   0.536   5.658  0.1124 -0.1495 -0.0924
  435UNK    F05 3912  25.771   0.455   5.553 -0.0815 -0.3869 -0.2802
  435UNK    F06 3913  25.774   0.669   5.619 -0.5421  0.0232  0.3676
  435UNK    F07 3914  25.876   0.507   5.726 -0.2860 -0.2723  0.3791
  435UNK    H08 3915  25.575   0.596   5.743 -1.2021 -0.7731 -1.1601
  436UNK    F00 3916  27.458   0.743   4.776 -0.4828  0.0088  0.3068
  436UNK    C01 3917  27.445   0.615   4.747 -0.5021 -0.5878 -0.3344
  436UNK    H02 3918  27.538   0.560   4.764  2.0339  3.6984  0.3827
  436UNK    C03 3919  27.324   0.565   4.726  0.1502  0.8053  0.3789
  436UNK    C04 3920  27.214   0.598   4.812  0.2392 -0.1525 -0.5209
  436UNK    F05 3921  27.191   0.728   4.803  0.2348 -0.7280  0.2226
  436UNK    F06 3922  27.100   0.541   4.775  0.2339  0.7843  0.4401
  436UNK    F07 3923  27.218   0.563   4.945 -0.7008 -0.3532 -0.2135
  436UNK    H08 3924  27.304   0.497   4.644  1.3434  2.1434 -1.0507
  437UNK    F00 3925  27.810   5.169   4.242 -0.5147 -0.4128 -0.1205
  437UNK    C01 3926  27.808   5.035   4.210  0.0346  0.0934  0.2191
  437UNK    H02 3927  27.796   4.987   4.307  0.8195 -0.0508  0.2544
  437UNK    C03 3928  27.876   5.001   4.099 -0.8909 -0.6974 -0.5082
  437UNK    C04 3929  27.855   4.879   4.021 -0.2584 -0.0397  1.3404
  437UNK    F05 3930  27.961   4.861   3.945 -0.0655  0.1543 -0.7970
  437UNK    F06 3931  27.844   4.761   4.091  0.2828 -0.5443  0.1636
  437UNK    F07 3932  27.740   4.895   3.950 -0.4731  0.3405 -0.6573
  437UNK    H08 3933  27.924   5.079   4.042  0.3647 -1.2022 -0.1385
  438UNK    F00 3934  22.745   4.087   6.660 -0.2197 -0.5047  0.2054
  438UNK    C01 3935  22.681   4.063   6.549 -0.0644 -0.2357  0.0944
  438UNK    H02 3936  22.598   3.993   6.561 -0.1180  0.0397  1.4429
  438UNK    C03 3937  22.747   4.070   6.437  0.2026 -0.5517  0.2861
  438UNK    C04 3938  22.692   4.079   6.300  0.1607 -1.0478 -0.5574
  438UNK    F05 3939  22.637   4.205   6.281  0.3225 -0.1383 -0.3000
  438UNK    F06 3940  22.787   4.052   6.212  0.2882  0.1436 -0.5280
  438UNK    F07 3941  22.593   3.989   6.287 -0.1933 -0.0595 -0.0966
  438UNK    H08 3942  22.851   4.040   6.438 -0.1073 -1.6918 -0.7687
  439UNK    F00 3943  23.561   1.585   1.779 -0.0744  0.2884 -0.6650
  439UNK    C01 3944  23.459   1.534   1.713  0.2030  0.6435 -0.4116
  439UNK    H02 3945  23.405   1.448   1.751 -0.1788  0.8208 -0.5494
  439UNK    C03 3946  23.411   1.594   1.604  0.1295  0.5400  0.4984
  439UNK    C04 3947  23.452   1.539   1.473  0.1374  0.8362  0.5593
  439UNK    F05 3948  23.418   1.628   1.374 -0.2635 -0.1971 -0.1681
  439UNK    F06 3949  23.591   1.534   1.460  0.5285  0.0509  0.5172
  439UNK    F07 3950  23.391   1.418   1.449 -0.0963 -0.0309  0.2055
  439UNK    H08 3951  23.397   1.701   1.607 -1.4380  0.3636 -0.3708
  440UNK    F00 3952  23.722   4.699   4.925 -0.7526  0.4033  0.1665
  440UNK    C01 3953  23.658   4.602   4.846 -0.0623  0.3684  0.4965
  440UNK    H02 3954  23.550   4.612   4.841 -0.3899 -1.7053  2.6259
  440UNK    C03 3955  23.745   4.531   4.769  0.0570 -0.1451 -0.2843
  440UNK    C04 3956  23.705   4.471   4.640 -0.5085  0.6554 -0.4470
  440UNK    F05 3957  23.645   4.558   4.558 -0.6547  0.0455 -0.5290
  440UNK    F06 3958  23.805   4.390   4.584  0.1265 -0.6750  0.1698
  440UNK    F07 3959  23.612   4.374   4.656 -0.1125  0.2031  0.1726
  440UNK    H08 3960  23.850   4.520   4.793 -0.2733 -0.3051  1.1007
  441UNK    F00 3961  22.058   3.936   5.764  0.0817 -0.3202 -0.0294
  441UNK    C01 3962  22.171   4.002   5.799  0.3072 -0.0042  0.5923
  441UNK    H02 3963  22.148   4.074   5.878  0.3443  1.2731 -0.5449
  441UNK    C03 3964  22.272   4.020   5.716  0.8131  0.0027  0.0908
  441UNK    C04 3965  22.260   4.136   5.624  0.2247 -0.5696  0.6742
  441UNK    F05 3966  22.352   4.126   5.529 -0.0111 -0.2694 -0.3714
  441UNK    F06 3967  22.142   4.156   5.565  0.2381  0.3717 -0.1995
  441UNK    F07 3968  22.287   4.247   5.698  0.3625 -0.4344  0.1689
  441UNK    H08 3969  22.369   3.989   5.752  1.3478  1.5706  0.0171
  442UNK    F00 3970  25.818   3.820   4.219 -0.1052 -0.1612 -0.4222
  442UNK    C01 3971  25.738   3.787   4.116  0.1032 -0.1873  0.3776
  442UNK    H02 3972  25.631   3.807   4.123 -0.0252 -0.3141 -0.9941
  442UNK    C03 3973  25.804   3.755   4.004 -0.5135 -0.0767 -0.0643
  442UNK    C04 3974  25.935   3.809   3.966  0.2512 -0.5336 -0.1918
  442UNK    F05 3975  25.939   3.939   4.001  0.4555 -0.6351 -0.4165
  442UNK    F06 3976  26.029   3.742   4.039  0.2339 -0.2911  0.5359
  442UNK    F07 3977  25.985   3.797   3.845  0.5990  0.1382  0.6993
  442UNK    H08 3978  25.788   3.654   3.970  1.6551 -0.2971 -0.4869
  443UNK    F00 3979  26.319   3.117   3.555  0.3337 -0.1155 -0.5329
  443UNK    C01 3980  26.408   3.211   3.527  0.3283  0.2350  0.5816
  443UNK    H02 3981  26.406   3.301   3.589  0.6059 -0.8188  2.1519
  443UNK    C03 3982  26.454   3.223   3.404 -0.4846 -0.2265 -0.2370
  443UNK    C04 3983  26.414   3.309   3.291  0.8915 -1.2029 -0.3461
  443UNK    F05 3984  26.504   3.298   3.194 -0.3481  0.2335 -0.2572
  443UNK    F06 3985  26.310   3.255   3.227  0.3236 -0.4310 -0.3466
  443UNK    F07 3986  26.393   3.440   3.332  0.6464 -0.0588 -0.0020
  443UNK    H08 3987  26.546   3.171   3.378  0.0033  1.1280 -1.3097
  444UNK    F00 3988  26.587   0.440   4.414  0.1341  0.5908  0.0320
  444UNK    C01 3989  26.579   0.362   4.301 -0.7571 -0.3258  0.3221
  444UNK    H02 3990  26.602   0.257   4.323 -1.1640 -0.8251 -1.6086
  444UNK    C03 3991  26.583   0.411   4.176  0.5781 -0.4406 -0.7730
  444UNK    C04 3992  26.546   0.323   4.060 -0.2999 -0.2152 -0.1088
  444UNK    F05 3993  26.560   0.387   3.941  0.0632 -0.1057  0.2182
  444UNK    F06 3994  26.646   0.227   4.056  0.1171  0.0738 -0.7412
  444UNK    F07 3995  26.428   0.254   4.082 -0.0610 -0.5180 -0.1736
  444UNK    H08 3996  26.655   0.487   4.151 -0.1154  0.8444  1.0567
  445UNK    F00 3997  28.005   3.036   4.497 -0.0397  0.1184  0.5132
  445UNK    C01 3998  27.905   3.075   4.416  0.4603  0.2018  0.6701
  445UNK    H02 3999  27.811   3.024   4.438  1.0675 -1.1203  0.2215
  445UNK    C03 4000  27.930   3.167   4.326 -0.1616  0.3405  0.1514
  445UNK    C04 4001  27.817   3.257   4.290 -0.2026 -1.1400 -0.1898
  445UNK    F05 4002  27.771   3.310   4.405  0.2052 -0.3048  0.0010
  445UNK    F06 4003  27.866   3.360   4.219 -0.6603  0.1799  0.2262
  445UNK    F07 4004  27.716   3.207   4.213  0.4680  0.0408 -0.1483
  445UNK    H08 4005  27.976   3.135   4.234  0.0788 -2.7705  1.3004
  446UNK    F00 4006  25.019   3.288   5.212  0.1222 -0.1487 -0.4656
  446UNK    C01 4007  25.041   3.270   5.081 -0.4774 -0.3274 -0.3528
  446UNK    H02 4008  25.060   3.365   5.031  0.9640 -0.0341  0.7153
  446UNK    C03 4009  25.012   3.158   5.017  0.0326 -0.4837 -0.3484
  446UNK    C04 4010  24.998   3.150   4.866  1.0244  0.2986  0.1685
  446UNK    F05 4011  24.976   3.024   4.818  0.0042 -0.1321  0.1053
  446UNK    F06 4012  24.901   3.233   4.818 -0.4704 -0.2509 -0.1084
  446UNK    F07 4013  25.113   3.199   4.809 -0.0234 -0.1644  0.4227
  446UNK    H08 4014  25.055   3.066   5.053 -0.4494 -1.4594 -2.1827
  447UNK    F00 4015  27.269   3.727   6.516  0.3538  0.3016 -0.4328
  447UNK    C01 4016  27.293   3.808   6.410 -0.1836 -0.0662  0.0260
  447UNK    H02 4017  27.392   3.791   6.366  0.4324  1.8074  0.6287
  447UNK    C03 4018  27.194   3.866   6.350 -0.3110 -0.2568  0.3535
  447UNK    C04 4019  27.110   3.972   6.407 -0.0541 -0.3914  0.3921
  447UNK    F05 4020  27.076   3.938   6.535  0.0510  0.0516 -0.2314
  447UNK    F06 4021  27.176   4.089   6.413 -0.1067 -0.2208 -0.3490
  447UNK    F07 4022  26.992   3.992   6.347  0.1082 -0.0304 -0.1202
  447UNK    H08 4023  27.149   3.816   6.265  1.6009 -1.4214 -0.0231
  448UNK    F00 4024  27.549   4.197   2.845 -0.3128  0.2039  0.2104
  448UNK    C01 4025  27.564   4.248   2.969  0.9639  0.7783 -0.3609
  448UNK    H02 4026  27.523   4.349   2.973  0.0652  0.4743 -1.7683
  448UNK    C03 4027  27.610   4.173   3.068  0.5159 -0.0042 -0.3768
  448UNK    C04 4028  27.586   4.191   3.214  0.1055 -1.0059  0.2201
  448UNK    F05 4029  27.660   4.109   3.289  0.1382 -0.2805  0.0494
  448UNK    F06 4030  27.606   4.319   3.253 -0.2351  0.4428  0.1011
  448UNK    F07 4031  27.455   4.158   3.231  0.1176 -0.4185  0.0428
  448UNK    H08 4032  27.680   4.094   3.044  0.3656 -0.6182  1.1241
  449UNK    F00 4033  27.754   5.030   5.376  0.1670 -0.1146 -0.0201
  449UNK    C01 4034  27.722   5.149   5.319  0.0152 -0.0651 -0.9177
  449UNK    H02 4035  27.742   5.223   5.397  3.8538  0.8677 -2.6569
  449UNK    C03 4036  27.696   5.169   5.189  0.1286  0.4017  0.0354
  449UNK    C04 4037  27.785   5.100   5.091 -0.3167 -0.3545  0.0430
  449UNK    F05 4038  27.812   5.177   4.983 -0.0810  0.3697 -0.3475
  449UNK    F06 4039  27.901   5.057   5.138  0.4464 -0.2843  0.1002
  449UNK    F07 4040  27.719   4.992   5.040  0.0189  0.2998 -0.1696
  449UNK    H08 4041  27.599   5.202   5.154  0.7601  2.0957 -0.1931
  450UNK    F00 4042  24.688   2.734   4.829 -0.1125  0.4992 -0.1136
  450UNK    C01 4043  24.602   2.681   4.738  0.1917 -0.2398  0.1393
  450UNK    H02 4044  24.517   2.644   4.795  0.3358  0.7696  1.0282
  450UNK    C03 4045  24.605   2.734   4.619  0.0140  0.0628 -0.0218
  450UNK    C04 4046  24.682   2.661   4.513 -0.0100  0.6408 -0.6259
  450UNK    F05 4047  24.808   2.641   4.548  0.8570 -0.2498 -0.3248
  450UNK    F06 4048  24.628   2.543   4.484  0.0101  0.2229 -0.1436
  450UNK    F07 4049  24.692   2.737   4.403 -0.3012  0.2638  0.4473
  450UNK    H08 4050  24.624   2.840   4.616  1.5994 -0.1965  0.5523
  451UNK    F00 4051  32.105   2.263  11.116 -0.8675 -0.6218 -0.0439
  451UNK    C01 4052  32.033   2.168  11.177 -0.2337  0.6010  0.3477
  451UNK    H02 4053  31.994   2.209  11.270 -0.6260 -0.8480  0.8279
  451UNK    C03 4054  31.987   2.065  11.107  0.1658  0.0716 -0.6064
  451UNK    C04 4055  31.945   1.934  11.167 -0.0358 -0.4165 -0.3281
  451UNK    F05 4056  31.834   1.954  11.241 -0.3670 -0.2217 -0.1974
  451UNK    F06 4057  31.911   1.849  11.064 -0.0102  0.1814 -0.5501
  451UNK    F07 4058  32.046   1.882  11.240  0.3467  0.2607  0.5692
  451UNK    H08 4059  31.964   2.086  11.004  0.3438  1.4694 -0.3659
  452UNK    F00 4060  23.471   0.569   5.969  0.2928 -0.4955 -0.0965
  452UNK    C01 4061  23.571   0.481   5.983  0.7129  0.0259 -0.2913
  452UNK    H02 4062  23.656   0.549   5.989 -0.1730  1.0617  0.9065
  452UNK    C03 4063  23.547   0.357   6.020  0.9910 -0.6964 -0.0051
  452UNK    C04 4064  23.625   0.289   6.127  0.5528  0.5473  0.4759
  452UNK    F05 4065  23.613   0.152   6.138 -0.5117  0.2012 -0.3987
  452UNK    F06 4066  23.757   0.331   6.106  0.2021  0.3289 -0.2296
  452UNK    F07 4067  23.603   0.345   6.247 -0.3585  0.4118 -0.1581
  452UNK    H08 4068  23.492   0.291   5.955  1.3073  0.8134 -1.8555
  453UNK    F00 4069  26.647   0.005   4.275 -0.0212 -0.3119 -0.4212
  453UNK    C01 4070  26.751  -0.076   4.272 -0.6174 -0.1809  0.1609
  453UNK    H02 4071  26.740  -0.178   4.236  1.0223  0.3033 -1.8548
  453UNK    C03 4072  26.868  -0.020   4.298  0.1671  0.3447  0.5594
  453UNK    C04 4073  26.907   0.016   4.436 -0.0198 -0.1041 -0.6207
  453UNK    F05 4074  26.978  -0.083   4.489 -0.5026 -0.0289 -0.0607
  453UNK    F06 4075  26.993   0.120   4.444 -0.4505  0.4040 -0.0208
  453UNK    F07 4076  26.806   0.032   4.525  0.1220  0.2547 -0.4657
  453UNK    H08 4077  26.906   0.048   4.223 -0.1439  3.1448  2.8666
  454UNK    F00 4078  25.451   4.635  12.120  0.5011  0.1844  0.8033
  454UNK    C01 4079  25.499   4.669  11.997  0.4734 -0.1540 -0.3324
  454UNK    H02 4080  25.545   4.582  11.951 -0.1585 -1.0053  0.6247
  454UNK    C03 4081  25.505   4.794  11.957  0.3459  0.0659  0.9257
  454UNK    C04 4082  25.508   4.814  11.813 -0.5149 -0.6226  0.8527
  454UNK    F05 4083  25.589   4.728  11.750 -0.4425 -0.1401  0.6505
  454UNK    F06 4084  25.384   4.782  11.760 -0.4970  0.4334 -0.2908
  454UNK    F07 4085  25.547   4.938  11.774  0.5590 -0.2186 -0.1366
  454UNK    H08 4086  25.447   4.873  12.003 -0.2674  1.3595 -1.9345
  455UNK    F00 4087  22.150   1.205   6.180  0.3908  0.2735  0.1580
  455UNK    C01 4088  22.108   1.097   6.247 -0.4489  0.7638  0.4785
  455UNK    H02 4089  22.063   1.133   6.339  1.0517 -0.5606  1.7648
  455UNK    C03 4090  22.145   0.978   6.207 -0.4496 -0.7325  0.5733
  455UNK    C04 4091  22.280   0.921   6.183  0.3684 -0.2093  0.4776
  455UNK    F05 4092  22.286   0.833   6.083  0.0578  0.3380  0.2510
  455UNK    F06 4093  22.383   1.011   6.157  0.2368 -0.8601  0.1596
  455UNK    F07 4094  22.333   0.859   6.293 -0.6404 -0.0357 -0.7001
  455UNK    H08 4095  22.075   0.919   6.150  0.3026 -0.2492 -0.8739
  456UNK    F00 4096  25.435   0.407   1.038  0.4627  0.1671  0.2596
  456UNK    C01 4097  25.360   0.385   0.927 -0.5970  0.3175 -0.6104
  456UNK    H02 4098  25.402   0.431   0.838 -0.1020  1.7875  0.3703
  456UNK    C03 4099  25.239   0.330   0.936 -0.2673  0.1775 -0.1496
  456UNK    C04 4100  25.164   0.254   0.832  0.4578 -0.3817 -0.6068
  456UNK    F05 4101  25.178   0.124   0.870  0.1925  0.0906 -0.3767
  456UNK    F06 4102  25.033   0.281   0.836  0.5089  0.2044  0.2520
  456UNK    F07 4103  25.206   0.285   0.708 -0.4066 -0.2573  0.3210
  456UNK    H08 4104  25.166   0.358   1.011  0.1005  0.9117 -0.0710
  457UNK    F00 4105  24.961   5.111   4.079  0.2637 -0.1755  0.1276
  457UNK    C01 4106  24.921   5.027   3.981  0.1802  0.6570  0.1388
  457UNK    H02 4107  24.830   4.975   4.011  0.6682 -0.3913 -0.2233
  457UNK    C03 4108  24.957   5.033   3.852  0.2823 -0.8440  0.7604
  457UNK    C04 4109  24.939   4.916   3.764  0.3484  0.0561  0.3810
  457UNK    F05 4110  24.808   4.896   3.738 -0.6128  0.2506  0.7872
  457UNK    F06 4111  24.995   4.927   3.642  0.3502  0.2051 -0.3098
  457UNK    F07 4112  24.979   4.796   3.815  0.6357  0.1382 -0.2818
  457UNK    H08 4113  24.948   5.129   3.803  2.4584 -2.0772 -2.2158
  458UNK    F00 4114  24.825   1.687   4.295 -0.0576  0.1211 -0.4003
  458UNK    C01 4115  24.783   1.595   4.211 -0.4605 -0.7097 -0.0499
  458UNK    H02 4116  24.861   1.521   4.195 -0.3823 -0.6059 -0.1389
  458UNK    C03 4117  24.652   1.572   4.180 -0.2124 -0.9826 -0.3183
  458UNK    C04 4118  24.537   1.612   4.264 -0.8609 -0.2551  0.6355
  458UNK    F05 4119  24.522   1.751   4.262  0.4119  0.2688 -0.6521
  458UNK    F06 4120  24.420   1.583   4.204 -0.1562 -0.0481  0.3316
  458UNK    F07 4121  24.546   1.561   4.388  0.1353  0.1824 -0.2657
  458UNK    H08 4122  24.625   1.597   4.079 -1.6535 -0.0863  0.2578
  459UNK    F00 4123  21.194   0.848  12.113 -0.4345  0.0329 -0.5160
  459UNK    C01 4124  21.267   0.779  12.201  0.3309  0.2961  0.1832
  459UNK    H02 4125  21.307   0.851  12.272  0.1376 -0.4460  1.0557
  459UNK    C03 4126  21.303   0.658  12.173  0.0261  0.2478 -0.6156
  459UNK    C04 4127  21.323   0.554  12.279 -0.5108  0.7976  0.6783
  459UNK    F05 4128  21.426   0.474  12.245 -0.4767  0.2529 -0.4332
  459UNK    F06 4129  21.358   0.607  12.401 -0.1914 -0.0200 -0.2292
  459UNK    F07 4130  21.202   0.488  12.297 -0.0440 -0.1554  0.1737
  459UNK    H08 4131  21.298   0.619  12.073 -0.5529 -1.5986  0.1082
  460UNK    F00 4132  28.543   2.598   4.373 -0.2393  0.2762  0.2057
  460UNK    C01 4133  28.499   2.488   4.313 -0.7391 -0.1262  0.2019
  460UNK    H02 4134  28.497   2.400   4.378 -2.0931  0.9564  1.6740
  460UNK    C03 4135  28.438   2.501   4.195 -0.7868 -0.4712  0.2506
  460UNK    C04 4136  28.378   2.393   4.118 -1.0148  1.0224  0.3676
  460UNK    F05 4137  28.251   2.369   4.159 -0.1119  0.3027  0.2221
  460UNK    F06 4138  28.368   2.442   3.994 -0.1749 -0.2559  0.0332
  460UNK    F07 4139  28.449   2.276   4.107  0.3250  0.4830  0.3231
  460UNK    H08 4140  28.400   2.596   4.161  1.3401 -0.4117 -2.1125
  461UNK    F00 4141  29.677   3.370   6.620 -0.0329 -0.4612 -0.1763
  461UNK    C01 4142  29.801   3.406   6.575  0.1694 -0.7605 -0.1495
  461UNK    H02 4143  29.837   3.483   6.643  1.5542 -1.1825 -0.3821
  461UNK    C03 4144  29.881   3.301   6.561  0.1689  0.0813  0.0990
  461UNK    C04 4145  30.028   3.308   6.544  0.5589 -0.3933  0.0837
  461UNK    F05 4146  30.063   3.402   6.453 -0.2757  0.5530 -0.1610
  461UNK    F06 4147  30.072   3.328   6.669 -0.4744  0.1745  0.3885
  461UNK    F07 4148  30.075   3.195   6.495 -0.0650  0.5128 -0.3681
  461UNK    H08 4149  29.853   3.204   6.599 -0.6721  1.1016  2.2133
  462UNK    F00 4150  23.922   3.889   4.610  0.6523  0.7115  0.1956
  462UNK    C01 4151  24.036   3.854   4.547  0.0857 -0.6158 -0.5240
  462UNK    H02 4152  24.016   3.871   4.441 -1.2909 -0.5950 -0.2690
  462UNK    C03 4153  24.117   3.759   4.598  0.1396  0.4470 -0.1152
  462UNK    C04 4154  24.076   3.620   4.624  0.1067 -0.8686  0.0404
  462UNK    F05 4155  24.160   3.575   4.720 -0.3218 -0.3353  0.1814
  462UNK    F06 4156  23.947   3.606   4.650  0.0259 -0.0630 -0.0826
  462UNK    F07 4157  24.102   3.539   4.522  0.3505 -0.3927 -0.5135
  462UNK    H08 4158  24.223   3.757   4.580  0.2646 -2.9305  0.6830
  463UNK    F00 4159  24.265   3.720   3.837 -0.4138 -0.4709  0.1525
  463UNK    C01 4160  24.381   3.685   3.891  0.4940 -0.1005  0.3436
  463UNK    H02 4161  24.368   3.625   3.981 -0.1482 -1.8070 -0.8572
  463UNK    C03 4162  24.487   3.760   3.859 -1.1200 -0.3872 -0.1984
  463UNK    C04 4163  24.624   3.704   3.858 -0.0184  0.2968  1.2782
  463UNK    F05 4164  24.665   3.673   3.735 -0.1762 -0.4390  0.1938
  463UNK    F06 4165  24.711   3.805   3.886 -0.1047  0.1361  0.1528
  463UNK    F07 4166  24.649   3.602   3.951  0.3614  0.0815  0.0789
  463UNK    H08 4167  24.475   3.855   3.810 -0.7033 -1.2791 -2.0633
  464UNK    F00 4168  28.630   2.222   4.831  0.4878  0.0431  0.3030
  464UNK    C01 4169  28.509   2.276   4.855  0.2178  0.2207 -0.4216
  464UNK    H02 4170  28.440   2.273   4.771 -0.5253  1.5497  0.1268
  464UNK    C03 4171  28.471   2.321   4.974  0.5661 -0.5465 -0.0750
  464UNK    C04 4172  28.338   2.306   5.040 -0.2369 -0.2687 -0.5489
  464UNK    F05 4173  28.241   2.361   4.965  0.2157  0.1946 -0.3671
  464UNK    F06 4174  28.320   2.174   5.053 -0.2436 -0.2959  0.6259
  464UNK    F07 4175  28.325   2.370   5.157 -0.4711 -0.5938 -0.4814
  464UNK    H08 4176  28.525   2.403   5.020 -0.1158  0.6439 -1.3238
  465UNK    F00 4177  27.755   3.987   3.880 -0.1731 -0.3190  0.2500
  465UNK    C01 4178  27.841   3.895   3.839 -0.0828 -0.1874 -0.0089
  465UNK    H02 4179  27.780   3.824   3.783 -0.4488  1.5767 -1.8857
  465UNK    C03 4180  27.963   3.875   3.877 -0.8065  0.1363 -0.1048
  465UNK    C04 4181  28.048   3.780   3.815 -0.0066  0.4021  0.1380
  465UNK    F05 4182  28.068   3.822   3.689 -0.2859 -0.0180 -0.2220
  465UNK    F06 4183  28.171   3.772   3.866  0.0622 -0.6832 -0.1706
  465UNK    F07 4184  27.981   3.663   3.802  0.4726  0.4452  0.0815
  465UNK    H08 4185  27.981   3.871   3.983 -3.7385  3.4801  0.6081
  466UNK    F00 4186  26.736   1.748   3.783 -0.1631  0.0729  0.2678
  466UNK    C01 4187  26.843   1.671   3.760 -0.3209 -0.0865  0.1641
  466UNK    H02 4188  26.880   1.695   3.660 -2.2788 -1.8417 -1.0155
  466UNK    C03 4189  26.895   1.589   3.855  0.6352  0.3729  0.4639
  466UNK    C04 4190  26.927   1.636   3.989  0.4563  0.0064  0.0504
  466UNK    F05 4191  27.013   1.548   4.042  0.5049 -0.6767 -0.3515
  466UNK    F06 4192  26.968   1.765   3.986  0.1713 -0.3079 -0.4235
  466UNK    F07 4193  26.818   1.643   4.066 -0.1836 -0.1282 -0.4404
  466UNK    H08 4194  26.884   1.482   3.850  2.5401  0.2286 -0.7624
  467UNK    F00 4195  23.491   2.245   7.116  0.1537  0.0942 -0.3439
  467UNK    C01 4196  23.616   2.284   7.080 -0.3189 -0.4572 -0.2931
  467UNK    H02 4197  23.628   2.281   6.971 -0.9036 -0.5411 -0.3572
  467UNK    C03 4198  23.705   2.326   7.167 -0.4362  0.6637 -0.8980
  467UNK    C04 4199  23.672   2.434   7.263 -0.2780  0.4025  0.0212
  467UNK    F05 4200  23.571   2.505   7.215 -0.2972 -0.0178  0.0666
  467UNK    F06 4201  23.647   2.393   7.388  0.1976 -0.1951  0.3616
  467UNK    F07 4202  23.770   2.520   7.280  0.0017 -0.4436  0.5479
  467UNK    H08 4203  23.766   2.248   7.212 -0.4923  1.9321  1.4426
  468UNK    F00 4204  22.881   2.103   7.461 -0.3699  0.1431  0.1643
  468UNK    C01 4205  22.977   2.176   7.403  0.5580  0.7853 -0.0628
  468UNK    H02 4206  22.929   2.253   7.343 -3.0252 -0.8782  0.5078
  468UNK    C03 4207  23.093   2.121   7.375 -0.9308  0.1332 -0.1140
  468UNK    C04 4208  23.212   2.196   7.318 -0.0324 -0.5435  0.6669
  468UNK    F05 4209  23.284   2.095   7.268  0.2020  0.5619  0.3686
  468UNK    F06 4210  23.172   2.271   7.209 -0.0447  0.0487  0.2431
  468UNK    F07 4211  23.286   2.273   7.406  0.3161 -0.2643 -0.1594
  468UNK    H08 4212  23.102   2.015   7.361 -2.7662 -0.1960  0.9406
  469UNK    F00 4213  26.302   1.190   3.491  0.1282  0.4588  0.1643
  469UNK    C01 4214  26.264   1.066   3.491  0.2846  0.2725 -0.4689
  469UNK    H02 4215  26.269   1.018   3.589 -5.2302  0.9232  0.2649
  469UNK    C03 4216  26.263   1.010   3.370 -0.0363  0.1553 -0.3875
  469UNK    C04 4217  26.266   0.867   3.351  0.4317 -0.4263 -0.5131
  469UNK    F05 4218  26.148   0.810   3.392 -0.4166 -0.0153 -0.3185
  469UNK    F06 4219  26.287   0.825   3.225 -0.2617 -0.1700  0.1076
  469UNK    F07 4220  26.370   0.812   3.421 -0.3715 -0.2162  0.1903
  469UNK    H08 4221  26.296   1.065   3.283  0.0247 -0.6820 -0.8969
  470UNK    F00 4222  27.463   4.405   4.539  0.2045 -0.3558  0.3563
  470UNK    C01 4223  27.540   4.501   4.595  0.3081  0.0319 -0.0171
  470UNK    H02 4224  27.558   4.588   4.532  0.3302 -0.0646 -0.1437
  470UNK    C03 4225  27.608   4.472   4.702  0.0742  0.5865  0.1522
  470UNK    C04 4226  27.682   4.563   4.793 -0.0315  0.4782 -0.3458
  470UNK    F05 4227  27.720   4.499   4.903  0.1828  0.0161  0.3797
  470UNK    F06 4228  27.787   4.615   4.725  0.1375  0.2385 -0.2242
  470UNK    F07 4229  27.600   4.660   4.842 -0.2627 -0.3242 -0.0829
  470UNK    H08 4230  27.633   4.368   4.715  0.3250  0.6478  0.1698
  471UNK    F00 4231  25.590   4.193   5.048 -0.0477  0.5797 -0.6434
  471UNK    C01 4232  25.624   4.121   4.943  0.5447  0.4855 -0.1833
  471UNK    H02 4233  25.589   4.166   4.850  1.6001  0.8159 -0.4279
  471UNK    C03 4234  25.707   4.015   4.956  0.1993 -1.0355 -0.4412
  471UNK    C04 4235  25.786   3.970   4.839 -0.2440  0.9620  0.5062
  471UNK    F05 4236  25.879   4.067   4.809 -0.0483  0.5066 -0.0267
  471UNK    F06 4237  25.870   3.870   4.873 -0.5633  0.2157 -0.1963
  471UNK    F07 4238  25.714   3.941   4.731 -0.2968 -0.3157 -0.1811
  471UNK    H08 4239  25.720   3.955   5.045  1.6535 -0.1239 -0.0136
  472UNK    F00 4240  26.281   4.086   5.918  0.0212  0.2530  0.1083
  472UNK    C01 4241  26.251   4.213   5.952  0.1509  0.8425 -0.2074
  472UNK    H02 4242  26.214   4.225   6.054  3.0908  1.8670  0.7827
  472UNK    C03 4243  26.276   4.309   5.860  0.8006  0.9864 -0.4440
  472UNK    C04 4244  26.342   4.434   5.890 -0.1050  0.8514 -0.0401
  472UNK    F05 4245  26.470   4.432   5.923  0.6516  0.3995  0.4755
  472UNK    F06 4246  26.337   4.511   5.779 -0.0512 -0.4261 -0.2757
  472UNK    F07 4247  26.270   4.501   5.984 -0.2777 -0.1208  0.2272
  472UNK    H08 4248  26.232   4.304   5.761  0.2684  2.5046 -0.2904
  473UNK    F00 4249  27.467   3.512   5.139  0.2625  0.1371  0.1179
  473UNK    C01 4250  27.539   3.550   5.031  0.6730 -0.8193 -0.1035
  473UNK    H02 4251  27.467   3.576   4.954 -0.1363  0.4011  1.0448
  473UNK    C03 4252  27.666   3.502   5.016  0.2301  0.7708 -0.2576
  473UNK    C04 4253  27.772   3.548   5.102 -0.3447 -0.6253 -0.1801
  473UNK    F05 4254  27.758   3.496   5.218  0.2023 -0.3582  0.0274
  473UNK    F06 4255  27.892   3.507   5.051 -0.0976 -0.0178  0.2522
  473UNK    F07 4256  27.770   3.683   5.109  0.4040  0.2548  0.0235
  473UNK    H08 4257  27.705   3.445   4.933  0.4477  0.2991  0.1616
  474UNK    F00 4258  27.919   1.065   4.773  0.1378 -0.5831 -0.0663
  474UNK    C01 4259  27.917   1.194   4.745  0.5333  0.6145  0.1992
  474UNK    H02 4260  27.832   1.247   4.790  0.8276 -0.7132  2.3939
  474UNK    C03 4261  27.980   1.225   4.638  0.1388  0.0233 -0.1229
  474UNK    C04 4262  27.922   1.268   4.512 -0.3732 -0.3447  0.4548
  474UNK    F05 4263  28.021   1.262   4.418 -0.8575  0.9567 -0.1115
  474UNK    F06 4264  27.834   1.174   4.456 -0.1705  0.0327 -0.1164
  474UNK    F07 4265  27.854   1.388   4.519 -0.0330 -0.1145  0.1392
  474UNK    H08 4266  28.088   1.228   4.639  0.1012  1.6573  1.3342
  475UNK    F00 4267  27.578   1.858   4.069 -0.1289  0.1158  0.2956
  475UNK    C01 4268  27.644   1.971   4.053 -0.9308 -0.4993  0.2315
  475UNK    H02 4269  27.748   1.954   4.023 -0.7577  0.9141 -0.0079
  475UNK    C03 4270  27.597   2.075   4.121  0.0552  1.1854  0.0561
  475UNK    C04 4271  27.633   2.218   4.099  0.3556 -0.1654  0.2850
  475UNK    F05 4272  27.765   2.231   4.088 -0.1544 -0.7151 -0.0659
  475UNK    F06 4273  27.565   2.277   3.999 -0.4165 -0.3069  0.4443
  475UNK    F07 4274  27.602   2.277   4.213 -0.3902  0.6324  0.0646
  475UNK    H08 4275  27.585   2.061   4.227 -0.5032 -0.2887 -0.1797
  476UNK    F00 4276  24.772   4.494   3.699 -0.1485 -0.7072 -0.0902
  476UNK    C01 4277  24.870   4.413   3.733 -0.7785  0.3013 -0.1146
  476UNK    H02 4278  24.834   4.311   3.745  1.6651 -0.9547 -2.8853
  476UNK    C03 4279  24.979   4.464   3.775  0.0331  0.3745 -0.0310
  476UNK    C04 4280  25.115   4.413   3.741  0.6959  0.1809 -0.4565
  476UNK    F05 4281  25.203   4.420   3.847  0.0254 -0.3410  0.1362
  476UNK    F06 4282  25.109   4.281   3.698 -0.8129 -0.1720 -0.0843
  476UNK    F07 4283  25.171   4.481   3.638  0.0543  0.5440  0.1086
  476UNK    H08 4284  24.974   4.556   3.831  3.1215  1.8027 -1.9725
  477UNK    F00 4285  24.607   2.191   4.349 -0.3230 -0.2738 -0.4111
  477UNK    C01 4286  24.710   2.155   4.427 -0.7211  0.1429 -0.0784
  477UNK    H02 4287  24.723   2.218   4.515 -1.5344 -0.0040  0.1564
  477UNK    C03 4288  24.778   2.050   4.380  0.5368  0.2205 -0.3074
  477UNK    C04 4289  24.844   1.949   4.465 -0.6676 -0.1019  0.9046
  477UNK    F05 4290  24.775   1.837   4.499  0.5609 -0.5217  0.3230
  477UNK    F06 4291  24.956   1.900   4.400 -0.2985 -0.7207 -0.1532
  477UNK    F07 4292  24.888   2.009   4.579 -0.0512  0.2677  0.3682
  477UNK    H08 4293  24.825   2.062   4.284  0.9294  1.7021  0.0594
  478UNK    F00 4294  25.383   2.799   3.553 -0.3865  0.1988  0.3313
  478UNK    C01 4295  25.512   2.827   3.578 -0.9368  0.2172 -0.7855
  478UNK    H02 4296  25.580   2.780   3.508  0.2918  1.6968 -0.6166
  478UNK    C03 4297  25.537   2.932   3.660 -0.0694 -0.3107  0.2774
  478UNK    C04 4298  25.673   2.988   3.676 -0.0410  0.1570  0.0314
  478UNK    F05 4299  25.687   3.092   3.753  0.1486 -0.0650  0.3331
  478UNK    F06 4300  25.744   2.886   3.727  0.2782  0.3926 -0.4492
  478UNK    F07 4301  25.723   3.030   3.553  0.5267 -0.3856  0.5216
  478UNK    H08 4302  25.457   3.001   3.683  0.4584  0.6839 -0.8454
  479UNK    F00 4303  26.952   2.492   5.424  0.3534  0.5791  0.1926
  479UNK    C01 4304  26.899   2.376   5.469  0.3596 -0.6877 -0.1304
  479UNK    H02 4305  26.891   2.378   5.577  0.0825 -0.7798 -0.1493
  479UNK    C03 4306  26.845   2.284   5.389  0.0288 -0.0864  0.0037
  479UNK    C04 4307  26.744   2.195   5.448  0.2502  0.0323  0.3013
  479UNK    F05 4308  26.779   2.164   5.571 -0.1317  0.0620  0.5317
  479UNK    F06 4309  26.627   2.266   5.444  0.2035 -0.3528  0.1397
  479UNK    F07 4310  26.719   2.077   5.381  0.3203 -0.3703 -0.4023
  479UNK    H08 4311  26.834   2.293   5.282 -0.9090  0.4404  0.1423
  480UNK    F00 4312  27.008   4.216   4.208  0.1063 -0.9409  0.2443
  480UNK    C01 4313  27.119   4.285   4.235  0.2014 -0.1536 -0.0394
  480UNK    H02 4314  27.091   4.356   4.313  1.4630  0.8801 -0.5296
  480UNK    C03 4315  27.215   4.300   4.142  0.3798  0.0183  0.1216
  480UNK    C04 4316  27.348   4.357   4.173  0.3861  0.4640 -0.6884
  480UNK    F05 4317  27.427   4.278   4.250 -0.2570 -0.4281  0.1836
  480UNK    F06 4318  27.419   4.374   4.064  0.8460  0.2686 -0.2251
  480UNK    F07 4319  27.321   4.474   4.236 -0.0817  0.1817  0.1452
  480UNK    H08 4320  27.186   4.314   4.039  1.1320  2.9690  0.2694
  481UNK    F00 4321  23.543   1.833   5.641 -0.3031 -0.3505 -0.0011
  481UNK    C01 4322  23.482   1.893   5.744 -0.0698  0.0349 -0.1404
  481UNK    H02 4323  23.390   1.939   5.706 -0.2960 -0.2375  0.0793
  481UNK    C03 4324  23.491   1.839   5.863 -0.4601 -0.3287  0.3828
  481UNK    C04 4325  23.402   1.863   5.976  0.2025  0.0108  0.1118
  481UNK    F05 4326  23.425   1.979   6.042  0.2334 -0.3861  0.6589
  481UNK    F06 4327  23.267   1.863   5.938 -0.2593 -0.0210  0.3228
  481UNK    F07 4328  23.429   1.770   6.073  0.5223 -0.1393 -0.2751
  481UNK    H08 4329  23.583   1.792   5.894  0.6286  1.4768 -0.0135
  482UNK    F00 4330  28.057   4.716   5.295  0.3136 -0.3145  0.2570
  482UNK    C01 4331  27.968   4.650   5.368 -0.2367 -0.1814  0.4909
  482UNK    H02 4332  28.020   4.620   5.459  0.2719 -1.1692 -0.1132
  482UNK    C03 4333  27.843   4.644   5.325  0.3394 -0.1091 -0.1424
  482UNK    C04 4334  27.819   4.569   5.200 -0.1467 -0.2160  0.0364
  482UNK    F05 4335  27.898   4.594   5.093 -0.0772 -0.5675  0.0612
  482UNK    F06 4336  27.817   4.433   5.217 -0.3570  0.7579  0.2673
  482UNK    F07 4337  27.689   4.606   5.171 -0.0577  0.6395  0.0265
  482UNK    H08 4338  27.778   4.728   5.348 -0.1035 -0.6326  0.5544
  483UNK    F00 4339  23.057   4.664   5.575 -0.3891  0.5075 -0.1692
  483UNK    C01 4340  23.172   4.670   5.504 -1.2024 -0.2685 -0.2303
  483UNK    H02 4341  23.251   4.615   5.555 -0.7829 -0.2182 -0.8168
  483UNK    C03 4342  23.163   4.689   5.376 -0.0971  0.5443 -0.2765
  483UNK    C04 4343  23.274   4.655   5.282  0.0641  0.3382  0.0841
  483UNK    F05 4344  23.278   4.745   5.183 -0.4385 -0.4227 -0.0798
  483UNK    F06 4345  23.397   4.634   5.333 -0.2848 -0.7236 -0.5076
  483UNK    F07 4346  23.247   4.536   5.218  0.0474 -0.1074 -0.2148
  483UNK    H08 4347  23.067   4.684   5.326  0.0564  1.5298 -0.6711
  484UNK    F00 4348  24.480   0.728   3.425 -0.0951 -0.2855  0.3688
  484UNK    C01 4349  24.361   0.788   3.449  0.6430 -0.0003 -0.3191
  484UNK    H02 4350  24.295   0.720   3.504 -0.2432 -1.0842 -2.6396
  484UNK    C03 4351  24.331   0.884   3.365  0.4706  0.2477  0.0667
  484UNK    C04 4352  24.221   0.984   3.382  0.0711  0.0475 -0.6464
  484UNK    F05 4353  24.116   0.936   3.460  0.3094 -0.3418  0.1473
  484UNK    F06 4354  24.261   1.095   3.447 -0.7612 -0.0306 -0.2248
  484UNK    F07 4355  24.161   1.016   3.267 -0.2256  0.4069 -0.4271
  484UNK    H08 4356  24.356   0.862   3.262 -3.5132 -2.1598 -0.4910
  485UNK    F00 4357  27.945   4.281   8.529 -0.1060 -0.2453 -0.5932
  485UNK    C01 4358  27.888   4.284   8.406  0.1606 -0.4632  0.0466
  485UNK    H02 4359  27.780   4.292   8.419 -0.0448 -2.1141 -0.5031
  485UNK    C03 4360  27.955   4.291   8.287  0.1287 -0.2155 -0.6391
  485UNK    C04 4361  28.075   4.372   8.262  0.5456  0.2482 -0.7848
  485UNK    F05 4362  28.085   4.498   8.320 -0.0407  0.3397  1.1478
  485UNK    F06 4363  28.189   4.305   8.305  0.1683  0.5190  0.1459
  485UNK    F07 4364  28.094   4.388   8.129 -0.3387  0.3694  0.0768
  485UNK    H08 4365  27.910   4.258   8.194  1.8085 -1.4168 -1.0556
  486UNK    F00 4366  25.288   0.129   7.023 -0.1869  0.1172  0.7006
  486UNK    C01 4367  25.188   0.206   7.058 -0.6201  0.4841  0.4417
  486UNK    H02 4368  25.126   0.223   6.971 -0.2935 -1.5689 -0.2260
  486UNK    C03 4369  25.216   0.289   7.151 -0.6208  0.2634  0.6167
  486UNK    C04 4370  25.114   0.357   7.229 -0.7695  0.2508 -0.0066
  486UNK    F05 4371  25.103   0.296   7.352  0.0913 -0.1224  0.4474
  486UNK    F06 4372  25.157   0.487   7.241 -0.3037  0.3422 -0.0617
  486UNK    F07 4373  24.993   0.368   7.169 -0.0045 -0.2650  0.3748
  486UNK    H08 4374  25.295   0.260   7.218  2.3260 -1.7109 -3.5214
  487UNK    F00 4375  23.088   1.210   9.869  0.0331  0.7884 -0.0488
  487UNK    C01 4376  23.209   1.244   9.907 -0.4313  0.2446 -0.1106
  487UNK    H02 4377  23.234   1.344   9.871  0.2663 -0.1467 -0.7222
  487UNK    C03 4378  23.281   1.168   9.994 -0.5635 -0.5294 -0.3213
  487UNK    C04 4379  23.387   1.217  10.081  0.7965  0.3311  0.2778
  487UNK    F05 4380  23.490   1.261  10.004 -0.9870  0.2019  0.1481
  487UNK    F06 4381  23.332   1.316  10.156  0.2493  0.2875  0.0111
  487UNK    F07 4382  23.429   1.125  10.171  0.2047 -0.0080 -0.6180
  487UNK    H08 4383  23.290   1.062   9.977  0.5748 -0.4639 -0.1473
  488UNK    F00 4384  25.886   0.176   6.551  0.1461  0.2970  0.5341
  488UNK    C01 4385  25.997   0.155   6.624  0.3836  0.6533 -0.2323
  488UNK    H02 4386  26.078   0.108   6.568  0.8130  1.8254 -0.6331
  488UNK    C03 4387  25.989   0.195   6.757 -0.7718  0.8951 -0.3548
  488UNK    C04 4388  25.930   0.112   6.862  0.7066 -0.0703  0.2386
  488UNK    F05 4389  26.030   0.028   6.907  0.0197 -0.0698 -0.4746
  488UNK    F06 4390  25.885   0.191   6.962 -0.0178 -0.0186  0.1682
  488UNK    F07 4391  25.819   0.043   6.821  0.7757  0.4287 -0.0447
  488UNK    H08 4392  25.986   0.300   6.782 -0.5121  0.3485  2.1410
  489UNK    F00 4393  26.302   4.379   8.424 -0.1046 -0.6243  0.3664
  489UNK    C01 4394  26.297   4.251   8.398  0.3055 -0.3440  0.6303
  489UNK    H02 4395  26.211   4.202   8.443  0.4483 -3.1663 -2.0332
  489UNK    C03 4396  26.371   4.189   8.306  0.0198 -0.2464  0.2875
  489UNK    C04 4397  26.506   4.135   8.338  0.2070 -0.4310  1.0199
  489UNK    F05 4398  26.569   4.138   8.222  0.0461 -0.3300 -0.6202
  489UNK    F06 4399  26.577   4.217   8.422 -0.0909 -0.0761  0.4627
  489UNK    F07 4400  26.510   4.015   8.394  0.3080 -0.1401 -0.1146
  489UNK    H08 4401  26.333   4.185   8.205  2.2025  0.8130 -0.6349
  490UNK    F00 4402  26.719   1.575   6.573 -0.1876 -0.1520  0.6821
  490UNK    C01 4403  26.797   1.679   6.537  0.4761  0.2680 -0.1508
  490UNK    H02 4404  26.901   1.647   6.541  0.1675 -0.5143  1.9908
  490UNK    C03 4405  26.739   1.793   6.499 -0.1393  0.3747 -0.3942
  490UNK    C04 4406  26.626   1.805   6.405 -0.8092  0.3333 -0.0838
  490UNK    F05 4407  26.507   1.792   6.465  0.2630 -0.6786 -0.3805
  490UNK    F06 4408  26.632   1.940   6.362  0.5045  0.3341 -0.4728
  490UNK    F07 4409  26.644   1.716   6.304 -0.8356 -0.0597 -0.1286
  490UNK    H08 4410  26.786   1.882   6.538  0.7482 -0.5454  0.6627
  491UNK    F00 4411  28.165   2.316   9.780  0.3247  0.2839 -0.0503
  491UNK    C01 4412  28.259   2.343   9.690 -0.4953  0.1114 -0.3494
  491UNK    H02 4413  28.345   2.276   9.697 -1.1369 -0.5788  0.9056
  491UNK    C03 4414  28.249   2.459   9.621 -0.7578  0.1930  0.6188
  491UNK    C04 4415  28.333   2.580   9.647 -0.3325 -0.3091 -0.1606
  491UNK    F05 4416  28.256   2.687   9.641  0.1825 -0.3839 -0.1743
  491UNK    F06 4417  28.383   2.572   9.772  0.0874  0.1071  0.0003
  491UNK    F07 4418  28.429   2.590   9.555  0.3459 -0.0676  0.1328
  491UNK    H08 4419  28.180   2.484   9.542  0.2165 -0.4133 -0.4528
  492UNK    F00 4420  26.245   3.520   7.239 -0.3268 -0.6491 -0.8044
  492UNK    C01 4421  26.204   3.642   7.203 -0.1434 -0.1171  0.5849
  492UNK    H02 4422  26.281   3.715   7.179  0.7903 -0.1640  3.2270
  492UNK    C03 4423  26.071   3.663   7.194  0.0542  0.5454 -0.1164
  492UNK    C04 4424  26.011   3.789   7.153  0.2131 -0.6242  0.0671
  492UNK    F05 4425  25.881   3.796   7.195  0.4922  0.4770 -0.7445
  492UNK    F06 4426  26.085   3.897   7.193 -0.0909 -0.3523  0.3459
  492UNK    F07 4427  26.012   3.787   7.014  0.1451  0.1882  0.3942
  492UNK    H08 4428  26.007   3.576   7.203  2.2182 -1.0058  0.5914
  493UNK    F00 4429  28.032   1.245   7.388  0.3808 -0.2342  0.6288
  493UNK    C01 4430  28.106   1.356   7.390  0.1645  0.8296  0.9032
  493UNK    H02 4431  28.129   1.393   7.490 -0.1161 -0.8638  1.6095
  493UNK    C03 4432  28.156   1.389   7.271  0.0166 -0.7187  0.2207
  493UNK    C04 4433  28.250   1.501   7.271 -0.3033  0.0908 -0.0020
  493UNK    F05 4434  28.371   1.492   7.329  0.3031  0.2741  0.2532
  493UNK    F06 4435  28.252   1.553   7.148  0.2839 -0.1730  0.0986
  493UNK    F07 4436  28.193   1.602   7.345 -0.4453 -0.2115 -0.9355
  493UNK    H08 4437  28.080   1.395   7.194  1.3840 -1.5011 -1.2142
  494UNK    F00 4438  25.654   1.022   6.015 -0.4602  0.2947  0.1731
  494UNK    C01 4439  25.567   1.080   6.095  0.5055  0.2445 -0.3537
  494UNK    H02 4440  25.519   1.006   6.159  1.6515 -0.0235  0.1964
  494UNK    C03 4441  25.563   1.213   6.105 -0.4809 -0.3264 -0.2130
  494UNK    C04 4442  25.508   1.286   6.219 -0.5941 -0.3008 -0.3479
  494UNK    F05 4443  25.577   1.271   6.335 -0.4796  0.2775  0.5429
  494UNK    F06 4444  25.528   1.424   6.187  0.1520  0.1470  0.4176
  494UNK    F07 4445  25.376   1.258   6.247 -0.0303 -0.0964  0.5031
  494UNK    H08 4446  25.549   1.267   6.012 -1.3837 -2.3206 -1.2504
  495UNK    F00 4447  24.948   3.082   8.650  0.5418  0.3291 -0.5277
  495UNK    C01 4448  25.079   3.103   8.644  0.7554 -0.1376 -0.3539
  495UNK    H02 4449  25.109   3.198   8.689 -0.1488 -1.1904  2.5825
  495UNK    C03 4450  25.150   3.003   8.609 -0.1256  0.3162  0.1583
  495UNK    C04 4451  25.296   3.001   8.639 -0.1424 -0.3153  0.6685
  495UNK    F05 4452  25.348   3.121   8.596  0.2656 -0.3079  0.3676
  495UNK    F06 4453  25.309   2.998   8.771  0.0230 -0.2715  0.1058
  495UNK    F07 4454  25.366   2.899   8.582  0.1093  0.0341  0.3649
  495UNK    H08 4455  25.112   2.914   8.561  1.0253  0.3056 -0.7607
  496UNK    F00 4456  27.433   0.104   3.515 -0.5053  0.0981  0.0338
  496UNK    C01 4457  27.327   0.108   3.440  0.3016 -0.2339 -0.5049
  496UNK    H02 4458  27.288   0.012   3.406 -0.5208  0.9679 -3.1033
  496UNK    C03 4459  27.270   0.230   3.426 -0.7379 -0.0678  0.6129
  496UNK    C04 4460  27.127   0.255   3.396 -0.4000 -0.3950  0.1666
  496UNK    F05 4461  27.120   0.366   3.313 -0.0542  0.0267  0.1917
  496UNK    F06 4462  27.073   0.148   3.329 -0.3789 -0.3183  0.6673
  496UNK    F07 4463  27.050   0.278   3.511  0.4412 -0.3128 -0.0259
  496UNK    H08 4464  27.321   0.316   3.466  1.1709 -0.7219 -0.3351
  497UNK    F00 4465  26.302   4.803   5.526  0.0693 -0.1721 -0.8343
  497UNK    C01 4466  26.171   4.823   5.504  0.1694  0.2807  0.6733
  497UNK    H02 4467  26.157   4.868   5.406 -0.8008  1.4803  1.3548
  497UNK    C03 4468  26.086   4.835   5.607 -0.3617  0.0209 -0.8881
  497UNK    C04 4469  25.936   4.846   5.579  0.3548  0.2504  0.3075
  497UNK    F05 4470  25.862   4.901   5.678 -0.2399  0.2500  0.0100
  497UNK    F06 4471  25.894   4.923   5.470  0.3531  0.1975  0.0231
  497UNK    F07 4472  25.880   4.719   5.561 -0.1967 -0.3705  0.2362
  497UNK    H08 4473  26.105   4.893   5.697  0.0918 -1.9085  0.2851
  498UNK    F00 4474  23.603   0.545   8.518  0.2587  0.2798 -0.1310
  498UNK    C01 4475  23.718   0.473   8.482  0.1192  0.1019  0.3714
  498UNK    H02 4476  23.708   0.368   8.509 -1.1792  0.0011 -0.4640
  498UNK    C03 4477  23.829   0.536   8.443  0.3923 -0.6599 -0.6916
  498UNK    C04 4478  23.936   0.460   8.379 -0.3957  0.6695  0.3065
  498UNK    F05 4479  23.942   0.335   8.419  0.0173  0.1124  0.0776
  498UNK    F06 4480  23.953   0.471   8.246 -0.1314 -0.6328  0.0539
  498UNK    F07 4481  24.051   0.517   8.420 -0.2043 -0.0791  0.1383
  498UNK    H08 4482  23.825   0.641   8.417 -0.4608 -0.7573 -1.0012
  499UNK    F00 4483  23.446   5.082   9.127 -0.0831 -0.4652 -0.3637
  499UNK    C01 4484  23.489   4.958   9.143  0.7582 -0.1227 -0.4435
  499UNK    H02 4485  23.532   4.951   9.243 -1.6333 -0.0649  0.6147
  499UNK    C03 4486  23.460   4.868   9.045  0.1513 -0.9252  0.4707
  499UNK    C04 4487  23.434   4.726   9.065  0.6232  0.0878  0.4469
  499UNK    F05 4488  23.414   4.659   8.951 -0.0699 -0.0886  0.1052
  499UNK    F06 4489  23.535   4.666   9.132  0.6091 -0.2766  0.0295
  499UNK    F07 4490  23.326   4.720   9.145  0.0286  0.5037 -0.2774
  499UNK    H08 4491  23.438   4.907   8.947 -0.5420 -0.6486  0.7344
  500UNK    F00 4492  28.473   1.639   6.302 -0.0735  0.5750 -0.4814
  500UNK    C01 4493  28.512   1.511   6.332 -0.0481 -0.0638 -0.0413
  500UNK    H02 4494  28.612   1.505   6.289 -0.6046  1.1992 -1.5645
  500UNK    C03 4495  28.486   1.466   6.457  0.8263 -0.2237  0.4894
  500UNK    C04 4496  28.564   1.370   6.536 -0.1636 -0.0118 -0.1164
  500UNK    F05 4497  28.599   1.272   6.452 -0.2514 -0.2726 -0.8869
  500UNK    F06 4498  28.679   1.421   6.598  0.0978  0.3817 -0.2151
  500UNK    F07 4499  28.490   1.308   6.633  0.8242 -0.1950 -0.1047
  500UNK    H08 4500  28.410   1.511   6.519  1.7667  0.4606  1.1617
  501UNK    F00 4501  29.960   0.570   9.188 -0.1721  0.0983  0.4467
  501UNK    C01 4502  29.927   0.509   9.074  0.3615  0.1783 -0.5139
  501UNK    H02 4503  29.971   0.409   9.068 -2.6570 -1.2728  0.3921
  501UNK    C03 4504  29.847   0.570   8.981  0.1240  0.1804  0.0480
  501UNK    C04 4505  29.885   0.648   8.861 -0.1241  0.3199  0.1198
  501UNK    F05 4506  29.777   0.704   8.798  0.5457  0.3044  0.2353
  501UNK    F06 4507  29.974   0.742   8.888  0.1360  0.1121  0.2123
  501UNK    F07 4508  29.951   0.565   8.774 -0.3821  0.1595 -0.1100
  501UNK    H08 4509  29.741   0.550   8.982  0.1203  0.2556  1.2699
  502UNK    F00 4510  23.320   4.101   8.591 -0.1530 -0.1979  0.1522
  502UNK    C01 4511  23.235   4.205   8.606 -0.1634 -0.1567  0.0215
  502UNK    H02 4512  23.183   4.240   8.517 -1.7260 -2.5226 -0.0533
  502UNK    C03 4513  23.201   4.243   8.726 -0.3591 -0.1983  1.1737
  502UNK    C04 4514  23.072   4.314   8.750  0.1698 -0.3279  0.0651
  502UNK    F05 4515  23.055   4.334   8.877  0.3558 -0.1447  0.1260
  502UNK    F06 4516  23.051   4.431   8.691  0.3177  0.1108  0.6519
  502UNK    F07 4517  22.968   4.233   8.719 -0.1233 -0.8173  0.0866
  502UNK    H08 4518  23.234   4.184   8.811  2.3133 -0.3983  0.0422
  503UNK    F00 4519  25.525   4.221   6.158  0.3740  0.4199 -0.1422
  503UNK    C01 4520  25.624   4.278   6.220 -0.5873 -0.5213  0.6726
  503UNK    H02 4521  25.622   4.261   6.327  2.2482  0.3144  0.9124
  503UNK    C03 4522  25.686   4.383   6.156 -0.5930 -0.0110  0.3721
  503UNK    C04 4523  25.817   4.442   6.188  0.1823 -0.3960 -0.6473
  503UNK    F05 4524  25.910   4.355   6.218 -0.2701 -0.1896  0.3701
  503UNK    F06 4525  25.858   4.525   6.085 -0.2331 -0.2481  0.0287
  503UNK    F07 4526  25.810   4.520   6.295 -0.2440 -0.0604  0.1236
  503UNK    H08 4527  25.625   4.437   6.085 -1.0307 -0.1895  0.6086
  504UNK    F00 4528  26.484   4.332   6.736 -0.3836  0.0963  0.1338
  504UNK    C01 4529  26.354   4.334   6.700 -0.1965 -1.0435  0.8969
  504UNK    H02 4530  26.283   4.312   6.780  1.0147 -1.0652  1.9773
  504UNK    C03 4531  26.338   4.308   6.570 -0.6013 -0.1552  0.4325
  504UNK    C04 4532  26.236   4.365   6.488  0.0384  0.1527 -0.7280
  504UNK    F05 4533  26.243   4.502   6.492 -0.9272  0.2496  0.0764
  504UNK    F06 4534  26.238   4.314   6.362 -0.2102  0.7774  0.4506
  504UNK    F07 4535  26.118   4.322   6.539 -0.2655 -0.0298  0.2400
  504UNK    H08 4536  26.356   4.204   6.547  0.2948  0.3870 -1.3626
  505UNK    F00 4537  25.580   4.021   4.253 -0.2489 -0.1942  0.5616
  505UNK    C01 4538  25.564   4.143   4.304  0.2257  0.0966  0.4156
  505UNK    H02 4539  25.476   4.202   4.280  1.2176  1.3437 -0.2945
  505UNK    C03 4540  25.655   4.176   4.392 -0.0328 -0.0383 -0.4670
  505UNK    C04 4541  25.643   4.287   4.478  0.2673 -0.3076  0.4274
  505UNK    F05 4542  25.760   4.345   4.515  0.1672 -0.1126 -0.4974
  505UNK    F06 4543  25.573   4.379   4.402  0.4976 -0.0203  0.4355
  505UNK    F07 4544  25.566   4.269   4.586  0.1902  0.6919  0.0915
  505UNK    H08 4545  25.722   4.103   4.436 -0.6497  0.3433  1.1251
  506UNK    F00 4546  27.878   0.965   7.143  0.1096 -0.3828 -0.8021
  506UNK    C01 4547  27.904   1.092   7.132  0.1257  0.6268 -0.1941
  506UNK    H02 4548  28.012   1.107   7.136  0.1248  0.3026  0.9936
  506UNK    C03 4549  27.804   1.186   7.121  0.1558  0.3670 -0.3576
  506UNK    C04 4550  27.739   1.267   7.227  0.1718  0.1098 -0.2926
  506UNK    F05 4551  27.737   1.210   7.350  0.2266 -0.3856 -0.6077
  506UNK    F06 4552  27.815   1.380   7.243 -0.0269 -0.0585 -0.3751
  506UNK    F07 4553  27.604   1.303   7.205  0.0760 -0.5381  0.5158
  506UNK    H08 4554  27.743   1.200   7.033  0.1741  4.9904  0.2353
  507UNK    F00 4555  27.247   3.042   3.666  0.1190 -0.1063 -0.1554
  507UNK    C01 4556  27.351   3.099   3.732  0.1328 -0.6525  0.0426
  507UNK    H02 4557  27.305   3.173   3.796 -4.0582 -0.8435 -2.5684
  507UNK    C03 4558  27.475   3.057   3.727  0.2136 -0.3728  0.4940
  507UNK    C04 4559  27.571   3.097   3.625  0.1626 -0.1326 -0.1408
  507UNK    F05 4560  27.670   3.011   3.619  0.2564  0.0839  0.2778
  507UNK    F06 4561  27.525   3.118   3.500  0.0780 -0.5115 -0.0182
  507UNK    F07 4562  27.619   3.221   3.660  0.3588  0.6044  0.5139
  507UNK    H08 4563  27.501   2.960   3.766  2.0786 -0.7487 -1.5990
  508UNK    F00 4564  27.142   1.689   7.237  0.1069  0.4923 -0.0381
  508UNK    C01 4565  27.036   1.732   7.313  0.6365  0.6757 -0.5443
  508UNK    H02 4566  27.060   1.831   7.353 -0.5448  1.1739 -1.0371
  508UNK    C03 4567  26.927   1.662   7.332 -0.0670  0.4662 -0.5236
  508UNK    C04 4568  26.924   1.541   7.418  0.1068  0.2954 -0.3375
  508UNK    F05 4569  27.008   1.441   7.385  0.3862 -0.3765  0.0356
  508UNK    F06 4570  26.945   1.577   7.545  0.3351  0.2547  0.2109
  508UNK    F07 4571  26.800   1.484   7.414  0.3670 -0.2520 -0.2128
  508UNK    H08 4572  26.845   1.680   7.265  0.9354  0.8453 -1.6695
  509UNK    F00 4573  26.077   4.381   8.234  0.0005 -0.5650 -0.0365
  509UNK    C01 4574  26.020   4.430   8.345 -0.0339 -0.1804  0.7651
  509UNK    H02 4575  25.918   4.391   8.348 -0.6223  1.3166  0.2748
  509UNK    C03 4576  26.061   4.543   8.395  0.5561 -0.0221  0.5665
  509UNK    C04 4577  26.012   4.610   8.515 -0.6770 -0.9551 -0.4529
  509UNK    F05 4578  25.891   4.576   8.557 -0.0362  0.5106 -0.0637
  509UNK    F06 4579  26.101   4.580   8.611 -0.3666  0.2658 -0.1965
  509UNK    F07 4580  26.014   4.748   8.499 -0.3922  0.4336 -0.4064
  509UNK    H08 4581  26.153   4.589   8.360 -1.0293  2.1018 -0.9556
  510UNK    F00 4582  26.457   3.300   8.495 -0.0124 -0.3036 -0.0562
  510UNK    C01 4583  26.451   3.427   8.527  0.2289 -0.2159 -0.1969
  510UNK    H02 4584  26.361   3.458   8.579  0.9007 -1.2600  1.6512
  510UNK    C03 4585  26.557   3.501   8.496 -0.5814  0.6707 -0.6528
  510UNK    C04 4586  26.562   3.571   8.368  0.3072  0.2485 -0.0810
  510UNK    F05 4587  26.479   3.680   8.374 -0.0777  0.3588 -0.0688
  510UNK    F06 4588  26.684   3.599   8.322  0.2779  0.8053  0.0569
  510UNK    F07 4589  26.506   3.485   8.276  0.5229  0.4196  0.3450
  510UNK    H08 4590  26.653   3.478   8.540 -0.2672 -1.4456 -2.3742
  511UNK    F00 4591  30.284   2.175   6.152  0.2194  0.6419  0.1903
  511UNK    C01 4592  30.275   2.253   6.259  0.1086  0.1400  0.2524
  511UNK    H02 4593  30.279   2.198   6.353 -2.0253  2.2878  1.6525
  511UNK    C03 4594  30.216   2.371   6.242  0.1505  0.2325 -0.6062
  511UNK    C04 4595  30.207   2.484   6.341  0.1738 -0.9407 -0.2865
  511UNK    F05 4596  30.103   2.555   6.303  0.1383 -0.0075 -0.6248
  511UNK    F06 4597  30.196   2.440   6.472 -0.1270  0.2516 -0.3922
  511UNK    F07 4598  30.326   2.561   6.340 -0.1867 -0.0855  0.2623
  511UNK    H08 4599  30.180   2.398   6.143 -1.1807  1.2815  0.1515
  512UNK    F00 4600  26.182   0.932   5.559  0.1728  0.5483 -0.6418
  512UNK    C01 4601  26.108   0.829   5.515  0.0737 -0.5767 -0.0526
  512UNK    H02 4602  26.003   0.837   5.543  0.3422  2.4940  0.3255
  512UNK    C03 4603  26.178   0.716   5.496  0.3346 -0.0888 -0.2093
  512UNK    C04 4604  26.260   0.663   5.603 -0.3215 -0.4399  0.3262
  512UNK    F05 4605  26.183   0.642   5.708  0.2258  0.6623 -0.0540
  512UNK    F06 4606  26.319   0.540   5.577  0.0379  0.1979 -0.1251
  512UNK    F07 4607  26.372   0.739   5.631  0.6767 -0.1525  0.4242
  512UNK    H08 4608  26.210   0.696   5.395  0.6884 -1.2576  0.1267
  513UNK    F00 4609  28.136   4.549   7.907 -0.1851  0.5288  0.8492
  513UNK    C01 4610  28.245   4.483   7.861  0.3984 -0.3536  0.0997
  513UNK    H02 4611  28.338   4.540   7.866  0.6677 -0.5490 -2.1916
  513UNK    C03 4612  28.229   4.360   7.813  0.3318 -0.4711  0.3215
  513UNK    C04 4613  28.341   4.271   7.804 -0.4160  1.5537 -0.0161
  513UNK    F05 4614  28.463   4.330   7.781  0.0111  0.0803 -0.2875
  513UNK    F06 4615  28.373   4.212   7.919  0.4319 -0.3840 -0.2343
  513UNK    F07 4616  28.319   4.171   7.712  0.0822  0.1448  0.3930
  513UNK    H08 4617  28.152   4.332   7.742  1.1315  0.8143 -1.0690
  514UNK    F00 4618  27.573   1.761   8.743 -0.2888  0.0256  0.0243
  514UNK    C01 4619  27.485   1.690   8.670  0.5266 -0.9864  0.4400
  514UNK    H02 4620  27.413   1.755   8.620  1.0631 -0.6430  0.1122
  514UNK    C03 4621  27.447   1.584   8.741  0.1634 -0.2761  0.3027
  514UNK    C04 4622  27.360   1.587   8.858 -0.1677  0.0688 -0.1840
  514UNK    F05 4623  27.234   1.627   8.825  0.0979  0.3212  0.4283
  514UNK    F06 4624  27.353   1.476   8.933  0.4430 -0.1900  0.4338
  514UNK    F07 4625  27.413   1.672   8.947 -0.0515 -0.3414  0.0048
  514UNK    H08 4626  27.480   1.485   8.712  1.1908 -0.3683  1.7401
  515UNK    F00 4627  25.256   3.136   6.600  0.3724 -0.2086 -0.3563
  515UNK    C01 4628  25.387   3.146   6.567 -0.3740  0.5728  0.1331
  515UNK    H02 4629  25.441   3.200   6.644  0.3717  0.9781 -0.6653
  515UNK    C03 4630  25.437   3.122   6.443 -0.3210 -0.1198 -0.4832
  515UNK    C04 4631  25.384   3.030   6.342 -0.2218  0.4988 -0.4216
  515UNK    F05 4632  25.328   2.920   6.402 -0.5432 -0.1914 -0.2690
  515UNK    F06 4633  25.297   3.084   6.258  0.1782 -1.0965  0.0905
  515UNK    F07 4634  25.482   2.991   6.259 -0.0068 -0.8480  0.1389
  515UNK    H08 4635  25.520   3.180   6.405  2.1486 -2.0828  1.6558
  516UNK    F00 4636  25.613   1.399   5.461 -0.1883 -0.0195 -0.3414
  516UNK    C01 4637  25.691   1.317   5.536 -0.0064 -0.2985  0.0349
  516UNK    H02 4638  25.720   1.382   5.620 -1.3744 -1.3331  1.3387
  516UNK    C03 4639  25.662   1.187   5.564 -0.0367 -0.4325  0.1407
  516UNK    C04 4640  25.710   1.120   5.689 -0.3406 -0.2810  0.1803
  516UNK    F05 4641  25.685   0.984   5.700 -0.1475 -0.3860  0.2980
  516UNK    F06 4642  25.845   1.121   5.680  0.3432 -0.0632 -0.3154
  516UNK    F07 4643  25.668   1.194   5.801  0.0321  0.6140  0.1689
  516UNK    H08 4644  25.590   1.132   5.504 -2.9938  0.9080  2.3353
  517UNK    F00 4645  26.488   1.290   9.875  0.2270  0.0787  0.1929
  517UNK    C01 4646  26.464   1.380   9.787  0.2471 -0.1445  0.1704
  517UNK    H02 4647  26.496   1.343   9.689 -0.6977  0.0837 -0.2286
  517UNK    C03 4648  26.383   1.478   9.821 -0.8752  0.2704  0.4038
  517UNK    C04 4649  26.428   1.593   9.902  0.6164 -0.9297 -0.2992
  517UNK    F05 4650  26.486   1.672   9.813 -0.0626  0.0959 -0.2949
  517UNK    F06 4651  26.335   1.667   9.964 -0.1935  0.2494  0.6624
  517UNK    F07 4652  26.517   1.554   9.994 -0.3135  0.4470 -0.3839
  517UNK    H08 4653  26.300   1.503   9.756 -2.0886  0.2771  1.9186
  518UNK    F00 4654  26.376   2.261   9.709 -0.2164 -0.3064  0.2989
  518UNK    C01 4655  26.250   2.243   9.679  0.1252 -0.0482  0.6399
  518UNK    H02 4656  26.223   2.143   9.647 -1.6808  0.3231  0.9976
  518UNK    C03 4657  26.176   2.356   9.659  0.2730 -0.8276 -0.1219
  518UNK    C04 4658  26.151   2.412   9.527 -0.1915 -0.4884 -0.1879
  518UNK    F05 4659  26.126   2.541   9.536  0.6923 -0.1499 -0.1533
  518UNK    F06 4660  26.263   2.397   9.453  0.5999 -0.6958 -0.3273
  518UNK    F07 4661  26.045   2.359   9.459 -0.0045  0.0269  0.1454
  518UNK    H08 4662  26.149   2.414   9.746  1.9592 -0.2385  0.0389
  519UNK    F00 4663  25.332   0.307  10.438  0.6023  0.1086 -0.0587
  519UNK    C01 4664  25.469   0.311  10.407  0.1344 -0.5339  0.6125
  519UNK    H02 4665  25.511   0.210  10.409 -0.0568 -0.6736 -1.6153
  519UNK    C03 4666  25.537   0.424  10.425 -0.1825  0.1067 -0.0046
  519UNK    C04 4667  25.678   0.439  10.384  0.0789 -0.4621 -0.0003
  519UNK    F05 4668  25.735   0.536  10.454  0.1442  0.1356 -0.7820
  519UNK    F06 4669  25.749   0.322  10.413  0.8049  0.4229 -0.3385
  519UNK    F07 4670  25.697   0.465  10.255 -0.1477  0.1337  0.5702
  519UNK    H08 4671  25.496   0.522  10.442  2.1589  1.1361 -0.1426
  520UNK    F00 4672  22.663   3.231   8.126 -0.7477 -0.5654  0.0055
  520UNK    C01 4673  22.689   3.231   7.995 -0.6539  0.0562  0.2950
  520UNK    H02 4674  22.719   3.330   7.959  0.8667 -0.0163  1.3088
  520UNK    C03 4675  22.727   3.117   7.951 -0.8521 -0.6497  0.1707
  520UNK    C04 4676  22.809   3.024   8.027 -0.2738 -0.3700 -0.1495
  520UNK    F05 4677  22.873   2.935   7.951 -0.0756 -0.5519  0.2392
  520UNK    F06 4678  22.905   3.076   8.103  0.0785 -0.0667  0.3856
  520UNK    F07 4679  22.743   2.942   8.109 -0.0308 -0.2444  0.0132
  520UNK    H08 4680  22.659   3.061   7.889 -0.0331 -0.9747 -0.4441
  521UNK    F00 4681  26.198   2.663   8.636 -0.2357 -0.1621  0.0525
  521UNK    C01 4682  26.332   2.681   8.647 -0.2322  0.2814  0.0319
  521UNK    H02 4683  26.390   2.589   8.651 -0.6673 -0.0752 -1.3706
  521UNK    C03 4684  26.374   2.806   8.659 -0.5250 -0.2891 -0.7408
  521UNK    C04 4685  26.502   2.858   8.608  0.1326 -0.0824  0.8576
  521UNK    F05 4686  26.583   2.763   8.561  0.0989  0.2569  0.0291
  521UNK    F06 4687  26.475   2.945   8.510 -0.0364 -0.2929  0.2075
  521UNK    F07 4688  26.560   2.926   8.704 -0.1315 -0.1094  0.5484
  521UNK    H08 4689  26.329   2.863   8.738 -0.1269 -1.1996  0.1444
  522UNK    F00 4690  29.221   0.480   7.681 -0.0186 -0.3518 -0.1097
  522UNK    C01 4691  29.336   0.453   7.750  0.1858  0.0244  0.2101
  522UNK    H02 4692  29.418   0.504   7.701  2.0478 -2.0969  1.0607
  522UNK    C03 4693  29.358   0.331   7.814  0.4806 -0.2582 -0.2822
  522UNK    C04 4694  29.450   0.315   7.924 -0.4440  0.3081 -0.2000
  522UNK    F05 4695  29.484   0.186   7.934  0.1290  0.2618 -0.1611
  522UNK    F06 4696  29.559   0.404   7.907  0.1219 -0.5322 -0.5331
  522UNK    F07 4697  29.387   0.347   8.046 -0.3099 -0.2086  0.1646
  522UNK    H08 4698  29.272   0.265   7.816 -1.0305  1.7041  1.7404
  523UNK    F00 4699  29.771   0.217   8.881  0.2488  0.1890 -0.0010
  523UNK    C01 4700  29.757   0.089   8.854  0.6537 -0.0678 -0.0557
  523UNK    H02 4701  29.844   0.061   8.795 -1.0694  0.2792 -2.8412
  523UNK    C03 4702  29.641   0.024   8.867 -0.1423 -0.3280 -0.5115
  523UNK    C04 4703  29.633  -0.107   8.928  0.3087 -0.6890 -0.7504
  523UNK    F05 4704  29.637  -0.104   9.062  0.1328 -0.4278 -0.0538
  523UNK    F06 4705  29.525  -0.174   8.878  0.0775  0.0831  0.9121
  523UNK    F07 4706  29.731  -0.186   8.874  0.5156 -0.1474  0.1558
  523UNK    H08 4707  29.555   0.086   8.889  0.8214  0.5603  0.8986
  524UNK    F00 4708  25.827   3.289   7.932  0.3900 -0.1316 -0.1689
  524UNK    C01 4709  25.727   3.376   7.952  0.5611 -0.4614  0.0166
  524UNK    H02 4710  25.654   3.349   8.029  0.6172  1.9336  0.9842
  524UNK    C03 4711  25.739   3.499   7.896  0.2368 -0.3020  0.0187
  524UNK    C04 4712  25.710   3.618   7.977  0.1808 -0.5779  0.7410
  524UNK    F05 4713  25.716   3.732   7.909 -0.1662  0.0121  0.4099
  524UNK    F06 4714  25.588   3.610   8.032  0.0887  0.2330  0.5701
  524UNK    F07 4715  25.794   3.632   8.076  0.3344  0.0993 -0.1602
  524UNK    H08 4716  25.703   3.505   7.795 -0.5578 -0.0548  0.3159
  525UNK    F00 4717  25.993   1.581   8.753 -0.0122  0.0684 -0.6793
  525UNK    C01 4718  26.060   1.526   8.651 -0.4522  0.5911  0.0990
  525UNK    H02 4719  25.988   1.471   8.590  0.4659 -2.5116  1.7542
  525UNK    C03 4720  26.193   1.527   8.648  0.3711  0.2366  0.0035
  525UNK    C04 4721  26.273   1.407   8.673  0.7101  0.5261 -0.6583
  525UNK    F05 4722  26.404   1.432   8.665 -0.0799 -0.2147 -0.1243
  525UNK    F06 4723  26.261   1.367   8.800 -0.1268  0.4280  0.4994
  525UNK    F07 4724  26.239   1.308   8.591  0.1391 -0.2720 -0.2234
  525UNK    H08 4725  26.243   1.618   8.680 -0.3692  0.5901  0.1611
  526UNK    F00 4726  25.975   2.689   7.543  0.4566  0.1089  0.4359
  526UNK    C01 4727  25.981   2.684   7.409  0.1224 -0.0181 -0.3028
  526UNK    H02 4728  25.895   2.744   7.378  0.9411  0.8115 -1.0079
  526UNK    C03 4729  26.097   2.656   7.347  0.6271 -1.0304 -0.0408
  526UNK    C04 4730  26.130   2.675   7.202  0.4054 -0.0649 -0.1667
  526UNK    F05 4731  26.030   2.630   7.120 -0.3534 -0.1712  0.2934
  526UNK    F06 4732  26.130   2.803   7.168 -0.5942 -0.0734 -0.0437
  526UNK    F07 4733  26.247   2.616   7.171  0.4283 -0.2931 -0.6588
  526UNK    H08 4734  26.183   2.682   7.407 -0.0046 -0.5927  0.6874
  527UNK    F00 4735  26.629   1.513  10.575 -0.1928  0.4043  0.0945
  527UNK    C01 4736  26.650   1.428  10.678  0.0610  0.7635 -0.4831
  527UNK    H02 4737  26.742   1.370  10.674  0.3739  1.3228 -1.5240
  527UNK    C03 4738  26.564   1.436  10.779  0.0206  0.4446 -0.0830
  527UNK    C04 4739  26.523   1.565  10.845 -0.4443 -0.3626  0.2072
  527UNK    F05 4740  26.614   1.664  10.837 -0.0047 -0.4061  0.1134
  527UNK    F06 4741  26.410   1.624  10.796 -0.5790 -0.2270 -0.1524
  527UNK    F07 4742  26.490   1.541  10.972 -0.5505  0.0254  0.4741
  527UNK    H08 4743  26.474   1.378  10.768  0.1059  0.2582  0.2142
  528UNK    F00 4744  28.782   4.195   8.538  0.1907 -0.1283 -0.3718
  528UNK    C01 4745  28.833   4.312   8.485  0.2970 -0.0385  0.2063
  528UNK    H02 4746  28.861   4.380   8.565 -0.7877  0.7252 -0.0551
  528UNK    C03 4747  28.868   4.300   8.358 -0.0717 -0.7857 -0.0589
  528UNK    C04 4748  28.950   4.400   8.289  0.1054  0.0315 -0.1379
  528UNK    F05 4749  28.943   4.526   8.338 -0.4619  0.4127 -0.3330
  528UNK    F06 4750  29.082   4.357   8.301 -0.1889 -0.0011  0.0409
  528UNK    F07 4751  28.914   4.415   8.158  0.3792  0.1664  0.0365
  528UNK    H08 4752  28.804   4.247   8.289 -0.1030  0.9059 -1.3792
  529UNK    F00 4753  28.880   5.016   9.033 -0.5067 -0.1160 -0.0708
  529UNK    C01 4754  28.780   4.934   9.039 -0.1081  0.3388 -0.6115
  529UNK    H02 4755  28.710   4.938   8.956 -0.9286 -0.6560  0.0222
  529UNK    C03 4756  28.777   4.854   9.142  0.6087  0.2416 -0.2439
  529UNK    C04 4757  28.732   4.893   9.275 -0.6509  0.8006 -0.1404
  529UNK    F05 4758  28.609   4.838   9.283  0.2505  0.0621 -0.6204
  529UNK    F06 4759  28.812   4.831   9.367  0.6505  0.2247 -0.0808
  529UNK    F07 4760  28.736   5.029   9.298  0.2211  0.0196  0.3562
  529UNK    H08 4761  28.796   4.749   9.122  2.0316 -0.0513  2.3239
  530UNK    F00 4762  26.871   0.269   6.355 -0.2663  0.0534 -0.1043
  530UNK    C01 4763  26.970   0.335   6.294  0.0475 -0.0965 -0.1700
  530UNK    H02 4764  26.971   0.444   6.299  0.7080 -0.0676 -0.7478
  530UNK    C03 4765  27.076   0.266   6.256  0.4111 -0.1261 -0.2714
  530UNK    C04 4766  27.113   0.204   6.132 -0.1116 -0.2840  0.0834
  530UNK    F05 4767  27.014   0.126   6.085 -0.6860 -0.0810  0.5282
  530UNK    F06 4768  27.133   0.285   6.028 -0.2201  0.0265 -0.2910
  530UNK    F07 4769  27.219   0.116   6.152 -0.4699 -0.0688  0.3578
  530UNK    H08 4770  27.141   0.238   6.337 -1.2717  1.2386  1.5910
  531UNK    F00 4771  25.602   4.613  10.393 -0.4086  0.3062  0.2696
  531UNK    C01 4772  25.501   4.589  10.304 -0.5655 -0.5961 -0.2571
  531UNK    H02 4773  25.514   4.672  10.235 -0.2831  0.1719  0.7081
  531UNK    C03 4774  25.391   4.529  10.344  0.2411  0.9607 -0.0841
  531UNK    C04 4775  25.395   4.423  10.441  0.4720  0.4683 -0.1120
  531UNK    F05 4776  25.436   4.465  10.564  0.1965  0.2800 -0.2709
  531UNK    F06 4777  25.266   4.383  10.459 -0.5145 -0.1983  0.2345
  531UNK    F07 4778  25.454   4.312  10.387  0.4517  0.1017 -0.1130
  531UNK    H08 4779  25.293   4.574  10.336 -0.8631 -1.2373  0.4937
  532UNK    F00 4780  27.511   0.240   6.966  0.0286  0.4577  0.2519
  532UNK    C01 4781  27.640   0.197   6.983  0.0043 -0.3021  0.0697
  532UNK    H02 4782  27.684   0.190   6.883 -1.2207  0.6917 -0.5611
  532UNK    C03 4783  27.697   0.246   7.094 -0.3040 -0.1929  0.3439
  532UNK    C04 4784  27.845   0.277   7.090  0.2205 -0.1415  0.0494
  532UNK    F05 4785  27.914   0.168   7.047 -0.0625 -0.0972 -0.0143
  532UNK    F06 4786  27.882   0.388   7.014 -0.1275 -0.1181 -0.2910
  532UNK    F07 4787  27.876   0.307   7.222  0.1249  0.0525  0.2418
  532UNK    H08 4788  27.631   0.291   7.166  1.0257  0.9470  0.8724
  533UNK    F00 4789  25.804   1.771   5.608  0.3793  0.7983 -0.0465
  533UNK    C01 4790  25.810   1.754   5.473  1.0529  0.0675 -0.1158
  533UNK    H02 4791  25.808   1.647   5.451  2.8371 -0.0943  0.3940
  533UNK    C03 4792  25.895   1.836   5.416  0.6793  0.5466  0.3702
  533UNK    C04 4793  25.907   1.976   5.448  0.1947  0.1377  0.4227
  533UNK    F05 4794  25.794   2.044   5.475  0.6387  0.0913  0.0437
  533UNK    F06 4795  25.990   1.989   5.556  0.0974 -0.2945  0.1094
  533UNK    F07 4796  25.968   2.037   5.342  0.5066  0.2284 -0.2383
  533UNK    H08 4797  25.952   1.798   5.333  1.8888  2.3825  0.3180
  534UNK    F00 4798  25.372   2.266   5.172  0.2311  0.2333  0.1265
  534UNK    C01 4799  25.319   2.378   5.229  0.0988  0.1102 -0.2106
  534UNK    H02 4800  25.397   2.452   5.247  0.8772  0.3500 -4.1687
  534UNK    C03 4801  25.187   2.391   5.254 -0.0304 -0.4272 -0.5972
  534UNK    C04 4802  25.125   2.525   5.284  0.1034 -0.2098  0.4814
  534UNK    F05 4803  24.993   2.519   5.296 -0.4019  0.3589  0.1222
  534UNK    F06 4804  25.185   2.586   5.387  0.6285  0.1806 -0.1170
  534UNK    F07 4805  25.142   2.603   5.177 -0.3891 -0.1635  0.6571
  534UNK    H08 4806  25.129   2.307   5.289  0.2484 -0.0767  0.7397
  535UNK    F00 4807  27.589   0.716   8.138  0.1700  0.2362  0.2314
  535UNK    C01 4808  27.721   0.688   8.129 -0.1300 -0.5112  0.5612
  535UNK    H02 4809  27.751   0.592   8.171 -1.0068 -0.8510  0.4240
  535UNK    C03 4810  27.795   0.781   8.078 -0.0803 -0.2616 -0.0432
  535UNK    C04 4811  27.925   0.755   8.019 -0.0932  0.1960  0.1454
  535UNK    F05 4812  27.907   0.694   7.902 -0.3002  0.6154 -0.7638
  535UNK    F06 4813  27.998   0.866   8.009 -0.3568  0.3432  0.1442
  535UNK    F07 4814  28.002   0.663   8.082 -0.0051  0.5315  0.1912
  535UNK    H08 4815  27.771   0.887   8.077  0.3256 -0.1622  0.6695
  536UNK    F00 4816  25.181   1.975   4.195  0.1508  0.1225  0.0513
  536UNK    C01 4817  25.139   1.865   4.131 -0.4188  0.0096  0.1588
  536UNK    H02 4818  25.062   1.824   4.197 -0.4697  0.5088  0.4098
  536UNK    C03 4819  25.206   1.790   4.042 -0.1398 -0.6590 -0.3146
  536UNK    C04 4820  25.134   1.726   3.933 -0.4996  0.2531  0.0757
  536UNK    F05 4821  25.045   1.643   3.988  0.4749  0.5021  0.4552
  536UNK    F06 4822  25.075   1.817   3.855  0.4760 -0.0927  0.2953
  536UNK    F07 4823  25.223   1.653   3.867  0.0062  0.2151  0.0542
  536UNK    H08 4824  25.306   1.817   4.009 -0.8331 -0.2933 -2.1821
  537UNK    F00 4825  28.260   0.457   7.057 -0.2046  0.0452  0.2697
  537UNK    C01 4826  28.293   0.541   6.961  0.0692  0.1110  0.4034
  537UNK    H02 4827  28.341   0.492   6.877 -0.4787 -0.3497  0.3577
  537UNK    C03 4828  28.258   0.668   6.983 -0.6814 -0.5082 -0.2170
  537UNK    C04 4829  28.345   0.741   7.081 -0.6325  0.4906 -0.5838
  537UNK    F05 4830  28.311   0.868   7.112  0.2000  0.0167  0.4221
  537UNK    F06 4831  28.361   0.692   7.204  0.2830  0.0825 -0.1831
  537UNK    F07 4832  28.469   0.758   7.035 -0.5674  0.7723  0.1639
  537UNK    H08 4833  28.156   0.700   6.993 -0.6861 -0.0942 -1.5896
  538UNK    F00 4834  26.053   1.871   5.010  0.3649 -0.1314  0.4488
  538UNK    C01 4835  26.159   1.933   5.073  1.2125  0.4576  0.6743
  538UNK    H02 4836  26.183   1.897   5.174  1.1730  2.3004  1.3590
  538UNK    C03 4837  26.246   1.969   4.988 -0.2782  0.9800 -0.8741
  538UNK    C04 4838  26.389   2.003   5.017 -0.8944 -0.2839 -0.1580
  538UNK    F05 4839  26.478   1.902   5.015  0.4259  0.0371 -0.1539
  538UNK    F06 4840  26.438   2.104   4.940 -0.2617  0.0642  0.0725
  538UNK    F07 4841  26.404   2.046   5.146 -0.1732  0.1588 -0.0934
  538UNK    H08 4842  26.218   1.953   4.885  0.2076 -0.4962 -0.7844
  539UNK    F00 4843  29.083   1.641  10.242 -0.1163 -0.4034  0.0106
  539UNK    C01 4844  28.969   1.590  10.283  0.3428 -0.1784 -0.1241
  539UNK    H02 4845  28.987   1.522  10.366  1.3247 -3.2674 -2.7843
  539UNK    C03 4846  28.856   1.652  10.247  0.8715  0.3616  0.3621
  539UNK    C04 4847  28.722   1.625  10.308 -0.2877  0.1372  0.4431
  539UNK    F05 4848  28.720   1.676  10.435 -0.6212  0.1477  0.8322
  539UNK    F06 4849  28.620   1.693  10.235  0.4743  0.3287 -0.1299
  539UNK    F07 4850  28.690   1.488  10.320 -0.0549 -0.1801 -0.0602
  539UNK    H08 4851  28.855   1.740  10.184  0.7856  0.8179  0.9905
  540UNK    F00 4852  25.089   5.129   7.380 -0.6965  0.1586 -0.2816
  540UNK    C01 4853  25.120   5.026   7.461 -0.7566  0.4157 -0.0526
  540UNK    H02 4854  25.081   4.931   7.425  1.5253 -0.7052  0.3536
  540UNK    C03 4855  25.201   5.045   7.566 -0.1194 -0.3047 -0.0086
  540UNK    C04 4856  25.259   4.934   7.637  0.1354  0.1116  0.6275
  540UNK    F05 4857  25.157   4.851   7.668  0.5312  0.5811  0.0745
  540UNK    F06 4858  25.338   4.848   7.562  0.2744 -0.1663  0.2431
  540UNK    F07 4859  25.337   4.970   7.742  0.0271  0.4316  0.2431
  540UNK    H08 4860  25.220   5.147   7.595 -0.9836 -0.1601  0.0552
  541UNK    F00 4861  27.316   2.387   5.390 -0.1282  0.1394  0.5061
  541UNK    C01 4862  27.290   2.401   5.519  0.1160 -0.4023  0.9112
  541UNK    H02 4863  27.355   2.343   5.585  1.0716 -2.1831 -1.5491
  541UNK    C03 4864  27.234   2.508   5.558  0.0584 -0.0941 -0.8725
  541UNK    C04 4865  27.269   2.576   5.683  0.7096  0.2967 -0.5820
  541UNK    F05 4866  27.395   2.626   5.697  0.9879 -0.0073  0.2897
  541UNK    F06 4867  27.182   2.681   5.715  0.3336  0.6598  0.3581
  541UNK    F07 4868  27.271   2.480   5.784  0.2691 -0.0503  0.2906
  541UNK    H08 4869  27.165   2.555   5.490  0.8796  0.6368 -1.2165
  542UNK    F00 4870  25.781   3.801   8.725 -0.5803 -0.4475 -0.0814
  542UNK    C01 4871  25.667   3.768   8.674  0.1225  0.2468 -0.0592
  542UNK    H02 4872  25.601   3.713   8.742  0.9637 -1.9888 -1.0140
  542UNK    C03 4873  25.651   3.809   8.551 -0.1056  1.0948  0.4844
  542UNK    C04 4874  25.738   3.761   8.438  0.3224  0.5307 -0.2323
  542UNK    F05 4875  25.699   3.642   8.400  0.8843 -0.0135  0.5118
  542UNK    F06 4876  25.704   3.834   8.333 -0.2265 -0.0619  0.5440
  542UNK    F07 4877  25.869   3.782   8.454  0.2444  0.8296  0.1020
  542UNK    H08 4878  25.553   3.839   8.519 -0.0749  0.0082 -0.6796
  543UNK    F00 4879  26.367   0.660   8.457 -0.5161  0.5879  0.1247
  543UNK    C01 4880  26.379   0.692   8.326 -0.7009  0.4905 -0.4359
  543UNK    H02 4881  26.284   0.689   8.274 -0.3626  1.4073 -1.1197
  543UNK    C03 4882  26.499   0.711   8.273  0.4193  0.1310  0.4420
  543UNK    C04 4883  26.576   0.593   8.240  0.5210 -0.0583 -0.4157
  543UNK    F05 4884  26.586   0.492   8.332 -0.0570  0.3360  0.0715
  543UNK    F06 4885  26.544   0.541   8.115  0.2951 -0.0696 -0.1682
  543UNK    F07 4886  26.699   0.651   8.231 -0.1302  0.0494  0.1200
  543UNK    H08 4887  26.566   0.784   8.316  1.5722  0.0929 -1.1955
  544UNK    F00 4888  24.883   3.771   8.191 -0.4762 -0.1792 -0.1843
  544UNK    C01 4889  24.847   3.640   8.206 -0.4325  0.5645  0.5555
  544UNK    H02 4890  24.760   3.621   8.144  0.4627 -0.1101 -0.5142
  544UNK    C03 4891  24.897   3.554   8.296 -0.0105 -0.8666  0.0751
  544UNK    C04 4892  24.874   3.412   8.302  0.2658 -0.0098  0.1123
  544UNK    F05 4893  24.915   3.347   8.412  0.2507 -0.2865 -0.3529
  544UNK    F06 4894  24.741   3.375   8.278 -0.4819 -0.1921  0.1296
  544UNK    F07 4895  24.941   3.345   8.206 -0.3415  0.1551  0.3554
  544UNK    H08 4896  24.970   3.587   8.367 -0.3020 -2.9481  1.3800
  545UNK    F00 4897  27.755   1.277   6.232  0.2517 -0.0451 -0.3595
  545UNK    C01 4898  27.707   1.196   6.133 -0.2726  0.0153  0.3012
  545UNK    H02 4899  27.780   1.187   6.053 -1.2292 -3.2732 -0.2736
  545UNK    C03 4900  27.588   1.140   6.132  0.7375  0.4495 -0.1871
  545UNK    C04 4901  27.523   1.091   6.257 -0.3852 -0.2160  0.1420
  545UNK    F05 4902  27.578   0.974   6.288 -0.0197  0.3958 -0.1199
  545UNK    F06 4903  27.531   1.182   6.360 -0.4190 -0.1243 -0.1254
  545UNK    F07 4904  27.393   1.078   6.229  0.4500  0.0690  0.1044
  545UNK    H08 4905  27.520   1.173   6.055 -0.5470  0.5230  0.9770
  546UNK    F00 4906  29.058   0.660   6.397 -0.4208  0.2512  0.4992
  546UNK    C01 4907  29.150   0.706   6.476  0.1936  0.1467 -0.1037
  546UNK    H02 4908  29.139   0.813   6.486  1.0500  0.4403 -2.0570
  546UNK    C03 4909  29.262   0.637   6.448 -0.2590  0.1996 -0.2491
  546UNK    C04 4910  29.257   0.498   6.407 -0.1277 -0.5722 -0.2525
  546UNK    F05 4911  29.168   0.430   6.485 -0.0519 -0.2750 -0.5012
  546UNK    F06 4912  29.232   0.474   6.278  0.4637 -0.2916 -0.4480
  546UNK    F07 4913  29.388   0.461   6.414 -0.2843  0.0912  0.1333
  546UNK    H08 4914  29.359   0.683   6.459  0.2070 -0.3500 -1.8411
  547UNK    F00 4915  24.916   4.661   4.642 -0.2344 -0.0137 -0.1042
  547UNK    C01 4916  24.855   4.680   4.519 -0.0882 -0.4640  0.0954
  547UNK    H02 4917  24.923   4.708   4.439  1.7916  0.9032  2.1234
  547UNK    C03 4918  24.722   4.710   4.512 -0.7650 -0.3024 -0.1651
  547UNK    C04 4919  24.683   4.854   4.534  0.7031  0.4594  1.3682
  547UNK    F05 4920  24.552   4.869   4.554 -0.2245  0.0777  0.6421
  547UNK    F06 4921  24.756   4.906   4.637 -0.5120  0.0818 -0.1349
  547UNK    F07 4922  24.720   4.935   4.432  0.4744  0.6423  0.2119
  547UNK    H08 4923  24.642   4.637   4.510 -0.5573 -0.5034 -2.0307
  548UNK    F00 4924  26.811   4.162   9.586 -0.2010  0.3950  0.0138
  548UNK    C01 4925  26.846   4.290   9.597  0.4528  0.3347  0.2522
  548UNK    H02 4926  26.904   4.325   9.511 -1.3943 -1.2606 -1.7092
  548UNK    C03 4927  26.847   4.367   9.703  0.2707 -0.5584  0.0703
  548UNK    C04 4928  26.858   4.515   9.690  0.3962  0.6380  0.0156
  548UNK    F05 4929  26.974   4.544   9.624 -0.6911  0.3817 -0.2857
  548UNK    F06 4930  26.753   4.560   9.621  0.1311  0.3478  0.2012
  548UNK    F07 4931  26.856   4.591   9.802  0.4473 -0.7526  0.3062
  548UNK    H08 4932  26.867   4.338   9.805 -0.0256  2.0064  0.8780
  549UNK    F00 4933  26.128   3.492   2.788  0.5732  0.3657  0.2453
  549UNK    C01 4934  26.134   3.398   2.877 -0.3599  0.5522 -0.5541
  549UNK    H02 4935  26.217   3.328   2.864  1.0202  1.9342  0.6360
  549UNK    C03 4936  26.077   3.433   2.989  0.3844 -0.0069  0.1783
  549UNK    C04 4937  25.928   3.428   3.013 -0.0885  0.6278  0.7887
  549UNK    F05 4938  25.867   3.499   2.915  0.6857 -0.2617  0.0506
  549UNK    F06 4939  25.876   3.299   3.030 -0.3208  0.5428 -0.3280
  549UNK    F07 4940  25.885   3.490   3.129  0.2073 -0.0539  0.1685
  549UNK    H08 4941  26.128   3.475   3.075 -1.7848  0.0178  1.4967
  550UNK    F00 4942  27.174   3.582   6.879  0.0772  0.4170 -0.6268
  550UNK    C01 4943  27.181   3.560   7.011 -0.3697  0.0735 -0.8600
  550UNK    H02 4944  27.131   3.635   7.071 -0.5191 -0.7990  0.1197
  550UNK    C03 4945  27.261   3.463   7.054  0.1676  0.3421  0.0454
  550UNK    C04 4946  27.240   3.383   7.180 -0.0195  0.2460  0.1894
  550UNK    F05 4947  27.191   3.469   7.275 -0.4212  0.3593 -0.0782
  550UNK    F06 4948  27.149   3.287   7.148 -0.2378  0.4222  0.3284
  550UNK    F07 4949  27.351   3.320   7.226 -0.1405  0.5562 -0.1833
  550UNK    H08 4950  27.326   3.419   6.980 -1.4076  0.3903 -1.4087
  551UNK    F00 4951  25.159   0.362   5.748  0.2403 -0.0542  0.3504
  551UNK    C01 4952  25.179   0.489   5.788  0.2619  0.3748 -0.3109
  551UNK    H02 4953  25.209   0.502   5.892 -1.2753  1.6990 -0.0075
  551UNK    C03 4954  25.146   0.593   5.710  0.2918 -0.4831 -0.1748
  551UNK    C04 4955  25.215   0.723   5.719  0.0402 -0.3147 -0.0378
  551UNK    F05 4956  25.126   0.814   5.688  0.0045  0.4416 -0.2803
  551UNK    F06 4957  25.258   0.756   5.845  0.5517  0.0898 -0.1556
  551UNK    F07 4958  25.325   0.732   5.643 -0.6791  0.4832  0.0292
  551UNK    H08 4959  25.039   0.604   5.699  0.0515 -1.8671  0.6093
  552UNK    F00 4960  23.555   4.852   8.737  0.0498  0.5712  0.2550
  552UNK    C01 4961  23.543   4.749   8.644  0.0476  0.2985 -0.3158
  552UNK    H02 4962  23.632   4.735   8.582  0.5967  1.7931  0.1241
  552UNK    C03 4963  23.419   4.698   8.623  0.2316 -0.1928  0.1169
  552UNK    C04 4964  23.394   4.566   8.566 -0.8853  0.1202 -0.1719
  552UNK    F05 4965  23.442   4.472   8.646  0.4053 -0.2453  0.6162
  552UNK    F06 4966  23.260   4.552   8.543  0.3126  0.1716 -0.0081
  552UNK    F07 4967  23.453   4.556   8.444  0.4478 -0.6635  0.0742
  552UNK    H08 4968  23.341   4.769   8.600  1.4733  1.0563 -0.2748
  553UNK    F00 4969  27.328   2.746   9.652 -0.2815  0.1632 -0.1561
  553UNK    C01 4970  27.389   2.627   9.651 -0.3711 -0.6710 -0.1555
  553UNK    H02 4971  27.496   2.647   9.646 -0.4956  0.2506  0.6825
  553UNK    C03 4972  27.315   2.525   9.633 -1.3760  0.4020 -0.1514
  553UNK    C04 4973  27.290   2.481   9.497 -0.6723  0.3996 -1.1413
  553UNK    F05 4974  27.376   2.378   9.459  0.1638 -0.2267 -0.3000
  553UNK    F06 4975  27.170   2.429   9.492 -0.3283  0.6410 -0.0824
  553UNK    F07 4976  27.301   2.574   9.400 -1.0676 -0.5728  0.4670
  553UNK    H08 4977  27.257   2.480   9.712  0.2183 -2.4585 -0.5687
  554UNK    F00 4978  26.847   1.846   8.360  0.0164  0.5413  0.0798
  554UNK    C01 4979  26.973   1.822   8.405 -0.3420  0.6461  0.2983
  554UNK    H02 4980  26.994   1.727   8.454 -2.5637  0.2788  0.5693
  554UNK    C03 4981  27.074   1.877   8.337 -0.1578  0.1355 -0.2744
  554UNK    C04 4982  27.206   1.812   8.327  0.2905  0.2506 -0.4265
  554UNK    F05 4983  27.198   1.707   8.247  0.6176  0.4072 -0.0948
  554UNK    F06 4984  27.292   1.900   8.272 -0.4175  0.1260 -0.5728
  554UNK    F07 4985  27.258   1.783   8.448  0.6822 -0.3779  0.1780
  554UNK    H08 4986  27.046   1.940   8.254  2.4744 -0.7933 -1.9461
  555UNK    F00 4987  25.040   3.861   7.551 -0.2936 -0.0182 -0.5425
  555UNK    C01 4988  24.925   3.907   7.604 -0.8566 -0.0951  0.0135
  555UNK    H02 4989  24.902   4.006   7.564 -0.9691 -0.0568  0.1712
  555UNK    C03 4990  24.885   3.840   7.708  0.6026 -0.0039  0.2017
  555UNK    C04 4991  24.742   3.820   7.746  0.0909  0.5176  1.0894
  555UNK    F05 4992  24.734   3.778   7.876 -0.1675 -0.0019 -0.2148
  555UNK    F06 4993  24.670   3.933   7.728 -0.5957  0.4960 -0.4009
  555UNK    F07 4994  24.696   3.721   7.662  0.4543 -0.1897 -0.2195
  555UNK    H08 4995  24.954   3.839   7.791 -0.2097 -0.2101  0.8827
  556UNK    F00 4996  24.758   2.837   6.837 -0.1032 -0.3151 -0.2480
  556UNK    C01 4997  24.761   2.927   6.934 -0.2982 -0.9030 -0.0461
  556UNK    H02 4998  24.855   2.981   6.925 -0.2797 -1.0274 -0.5632
  556UNK    C03 4999  24.721   2.883   7.051  0.1686 -0.2030  0.2641
  556UNK    C04 5000  24.713   2.966   7.174 -1.1434 -0.1516  0.2796
  556UNK    F05 5001  24.827   3.038   7.191 -0.5131 -0.2683 -0.5183
  556UNK    F06 5002  24.614   3.056   7.146 -0.4761 -0.4227  0.2544
  556UNK    F07 5003  24.693   2.897   7.287 -0.1878  0.1650  0.1271
  556UNK    H08 5004  24.694   2.779   7.062  0.9116 -0.3792  0.4586
  557UNK    F00 5005  26.080   1.495   4.385 -0.4169 -0.5416 -0.1723
  557UNK    C01 5006  26.144   1.603   4.341  0.2313 -0.4146  0.8046
  557UNK    H02 5007  26.210   1.643   4.417  2.6054 -0.7347 -1.0045
  557UNK    C03 5008  26.170   1.619   4.212 -0.5085  0.5228  0.5338
  557UNK    C04 5009  26.084   1.705   4.127 -0.0076 -0.4052  0.7383
  557UNK    F05 5010  26.120   1.835   4.138 -0.0530 -0.9336  0.4032
  557UNK    F06 5011  26.087   1.652   4.006 -0.0994 -0.2462 -0.0042
  557UNK    F07 5012  25.962   1.692   4.184  0.5310  0.7568 -0.2629
  557UNK    H08 5013  26.233   1.549   4.159 -1.9123 -1.0475  0.8866
  558UNK    F00 5014  25.088   4.212   5.326  0.2113 -0.2946  0.0838
  558UNK    C01 5015  25.085   4.136   5.435  0.8323  0.4827 -0.5506
  558UNK    H02 5016  25.154   4.051   5.435  2.1821  1.5502 -1.6851
  558UNK    C03 5017  24.978   4.153   5.517  0.0229 -0.4848 -0.2328
  558UNK    C04 5018  24.852   4.074   5.502  0.1464 -0.3672  0.5331
  558UNK    F05 5019  24.799   4.060   5.375  0.2584  0.0815 -0.6333
  558UNK    F06 5020  24.902   3.948   5.522  0.2830 -0.2685 -0.2867
  558UNK    F07 5021  24.751   4.110   5.589 -0.2244 -0.0009  0.7316
  558UNK    H08 5022  24.989   4.234   5.587  3.1293 -2.3140  1.5640
  559UNK    F00 5023  26.380   1.416   9.469  0.2977 -0.3120 -0.4398
  559UNK    C01 5024  26.384   1.514   9.376 -0.2278  0.0887 -0.3291
  559UNK    H02 5025  26.464   1.501   9.304 -2.7113 -1.7542 -2.8266
  559UNK    C03 5026  26.289   1.601   9.359 -0.2491 -0.0912  0.0894
  559UNK    C04 5027  26.297   1.737   9.408 -0.0155 -0.1174  0.5361
  559UNK    F05 5028  26.173   1.792   9.415  0.0744  0.6973 -0.5018
  559UNK    F06 5029  26.367   1.738   9.525  0.7141  0.2935 -0.5077
  559UNK    F07 5030  26.366   1.805   9.315  0.2760  0.4062 -0.2482
  559UNK    H08 5031  26.212   1.591   9.284 -0.3251 -2.5527  0.4732
  560UNK    F00 5032  26.636   2.535   9.200 -0.2105 -0.2900 -0.1139
  560UNK    C01 5033  26.711   2.481   9.302  0.3381  0.7146 -0.3215
  560UNK    H02 5034  26.818   2.495   9.287  0.7274 -2.2595 -0.6889
  560UNK    C03 5035  26.645   2.425   9.402  0.1966 -0.5306 -0.8302
  560UNK    C04 5036  26.700   2.311   9.479  0.2858 -0.6001  0.2568
  560UNK    F05 5037  26.772   2.346   9.585 -0.0587 -0.2395 -1.0325
  560UNK    F06 5038  26.599   2.235   9.530 -0.4292 -0.0466  0.1112
  560UNK    F07 5039  26.782   2.241   9.399 -0.0271 -0.2741 -0.1977
  560UNK    H08 5040  26.539   2.439   9.412  0.5912  1.7730  0.3971
  561UNK    F00 5041  26.385   0.690  10.367  0.6512  0.4747 -0.2316
  561UNK    C01 5042  26.403   0.563  10.336 -0.3974  0.1976  0.3695
  561UNK    H02 5043  26.509   0.550  10.318 -1.1035 -0.9941 -3.3914
  561UNK    C03 5044  26.318   0.491  10.265  0.1931  0.1509 -0.1728
  561UNK    C04 5045  26.305   0.347  10.278 -0.5540  0.0935 -0.2595
  561UNK    F05 5046  26.420   0.283  10.262  0.5239  0.1290 -0.1095
  561UNK    F06 5047  26.267   0.300  10.399 -0.1140 -0.2275  0.1419
  561UNK    F07 5048  26.206   0.301  10.193 -0.4467  0.0740 -0.1104
  561UNK    H08 5049  26.226   0.531  10.225  0.8846 -0.0548 -2.0233
  562UNK    F00 5050  29.289   2.237   7.999 -0.0513  0.9026 -0.1771
  562UNK    C01 5051  29.211   2.251   8.105  0.1122  0.0272  0.5129
  562UNK    H02 5052  29.272   2.266   8.194 -0.3425  3.9322  0.2463
  562UNK    C03 5053  29.076   2.240   8.097  0.0523  0.0919 -0.4633
  562UNK    C04 5054  29.020   2.102   8.084  0.2818 -0.5512  0.2188
  562UNK    F05 5055  28.881   2.105   8.073  0.6234 -0.1772  0.1701
  562UNK    F06 5056  29.073   2.032   7.982 -0.1536  0.0024 -0.2131
  562UNK    F07 5057  29.060   2.043   8.201  0.0121  0.1194 -0.2571
  562UNK    H08 5058  29.010   2.323   8.117 -0.7140 -0.2088 -1.7462
  563UNK    F00 5059  25.123   4.933   8.008 -0.0438 -0.4770  0.0210
  563UNK    C01 5060  25.194   4.835   8.065 -0.2583 -0.1863 -0.1249
  563UNK    H02 5061  25.212   4.861   8.169 -2.0387 -0.5013  0.2703
  563UNK    C03 5062  25.263   4.752   7.990  0.0480 -0.0230 -0.2144
  563UNK    C04 5063  25.280   4.611   8.022  0.3067  0.3722 -0.0847
  563UNK    F05 5064  25.182   4.541   7.974  0.4495 -0.3354  0.2975
  563UNK    F06 5065  25.393   4.559   7.972  0.8701  0.4533  0.0471
  563UNK    F07 5066  25.278   4.603   8.159 -0.5503 -0.1037 -0.0385
  563UNK    H08 5067  25.330   4.792   7.915 -0.9931 -0.9340 -1.6650
  564UNK    F00 5068  25.815   4.186   3.426 -0.0707  0.4566  0.4234
  564UNK    C01 5069  25.941   4.218   3.439  0.0503  0.3368 -0.6519
  564UNK    H02 5070  25.985   4.248   3.344  0.1433  0.8177 -0.4610
  564UNK    C03 5071  25.986   4.227   3.570  0.4927  0.2646 -0.8679
  564UNK    C04 5072  26.042   4.113   3.644 -0.1844 -0.0459 -0.5390
  564UNK    F05 5073  26.166   4.090   3.600 -0.1527 -0.0416  0.0683
  564UNK    F06 5074  26.061   4.146   3.778  0.5278  0.2135  0.6307
  564UNK    F07 5075  25.973   3.998   3.641  0.3041  0.4160  0.1350
  564UNK    H08 5076  26.028   4.317   3.613  1.4798 -0.0183 -1.2151
  565UNK    F00 5077  29.132   0.962   8.292 -0.0972 -0.0536 -0.2376
  565UNK    C01 5078  29.114   1.089   8.251  0.0689 -0.2315  0.4814
  565UNK    H02 5079  29.099   1.095   8.143 -0.5855 -0.7635  0.5431
  565UNK    C03 5080  29.167   1.186   8.326 -0.5856 -0.7014  0.9192
  565UNK    C04 5081  29.160   1.333   8.308 -0.0776 -0.1361  0.0573
  565UNK    F05 5082  29.175   1.381   8.186 -0.1026 -0.4020 -0.0759
  565UNK    F06 5083  29.043   1.382   8.361 -0.5760 -0.2862 -0.2237
  565UNK    F07 5084  29.249   1.385   8.394  0.2262 -0.5461  0.8531
  565UNK    H08 5085  29.208   1.155   8.421  1.4255  0.0784  0.3169
  566UNK    F00 5086  23.394   2.941   5.740  0.0015 -0.1783 -0.1783
  566UNK    C01 5087  23.405   2.860   5.631  0.1046 -0.0497 -0.7182
  566UNK    H02 5088  23.322   2.790   5.636  1.9737 -2.2337  0.4400
  566UNK    C03 5089  23.517   2.868   5.559  1.3177  0.1055 -0.2400
  566UNK    C04 5090  23.526   2.821   5.419  0.0104 -0.3134  0.2991
  566UNK    F05 5091  23.653   2.805   5.373  0.0340 -0.4354  0.3819
  566UNK    F06 5092  23.439   2.718   5.383 -0.2551  0.1935  0.0941
  566UNK    F07 5093  23.479   2.937   5.357  0.3157 -1.0527  0.2476
  566UNK    H08 5094  23.604   2.925   5.588  0.3084  0.3316  2.4734
  567UNK    F00 5095  24.978   2.041  10.048 -0.3344 -0.3554  0.5718
  567UNK    C01 5096  25.089   2.001  10.106 -0.1349 -0.3196  0.2376
  567UNK    H02 5097  25.087   2.017  10.214  1.0996 -0.8333  0.3431
  567UNK    C03 5098  25.153   1.911  10.039 -0.1403  0.2310  0.2185
  567UNK    C04 5099  25.225   1.809  10.117 -0.4659 -0.6291 -0.0290
  567UNK    F05 5100  25.272   1.866  10.230  0.4507 -0.1107 -0.1560
  567UNK    F06 5101  25.144   1.709  10.142 -0.0077 -0.0651  0.4026
  567UNK    F07 5102  25.333   1.758  10.053  0.0054  0.1058  0.6087
  567UNK    H08 5103  25.182   1.937   9.939 -1.4299  1.8821  0.2545
  568UNK    F00 5104  26.653   2.655   7.540  0.1009 -0.8048  0.3244
  568UNK    C01 5105  26.769   2.610   7.490  0.2691 -0.0114 -0.1622
  568UNK    H02 5106  26.843   2.690   7.482  0.4308 -0.1585 -0.0982
  568UNK    C03 5107  26.800   2.483   7.497  0.6849  0.4252  0.1984
  568UNK    C04 5108  26.754   2.385   7.394 -0.2411  0.0572 -0.2334
  568UNK    F05 5109  26.630   2.401   7.345  0.3334 -0.1126  0.0121
  568UNK    F06 5110  26.822   2.389   7.272 -0.3294  0.1840  0.5030
  568UNK    F07 5111  26.768   2.255   7.432 -0.2111 -0.3689 -0.3396
  568UNK    H08 5112  26.874   2.449   7.568  0.1933 -2.1578 -0.4577
  569UNK    F00 5113  24.793   1.808   6.140 -0.2548 -0.3818  0.2759
  569UNK    C01 5114  24.756   1.932   6.190  0.0496 -0.1502 -0.5617
  569UNK    H02 5115  24.649   1.927   6.213 -0.3039 -2.0498 -2.4761
  569UNK    C03 5116  24.847   2.009   6.252  0.3746  0.0893  0.2049
  569UNK    C04 5117  24.807   2.143   6.294  0.1271  0.8632  0.0527
  569UNK    F05 5118  24.721   2.143   6.396  0.9556  0.3513 -0.1932
  569UNK    F06 5119  24.911   2.222   6.333 -0.6410  0.1253  0.1023
  569UNK    F07 5120  24.754   2.198   6.184  0.0392  0.4604 -0.7842
  569UNK    H08 5121  24.949   2.000   6.219 -0.1248  0.6548 -1.5287
  570UNK    F00 5122  24.969   4.022   8.843 -0.3631  0.4038  0.3898
  570UNK    C01 5123  25.015   4.096   8.946  0.2241 -0.0390 -0.0600
  570UNK    H02 5124  25.110   4.141   8.918  1.0154 -1.2074  0.7190
  570UNK    C03 5125  24.926   4.142   9.032 -0.1833  0.8142 -1.2570
  570UNK    C04 5126  24.938   4.282   9.077 -0.1377 -0.2305  0.0563
  570UNK    F05 5127  24.922   4.376   8.983  0.0786 -0.0391 -0.0728
  570UNK    F06 5128  24.850   4.301   9.179 -0.0855 -0.2871  0.1163
  570UNK    F07 5129  25.061   4.300   9.130 -0.0157  0.3190 -0.1365
  570UNK    H08 5130  24.876   4.071   9.097  1.6822 -0.3937 -1.0886
  571UNK    F00 5131  25.025   0.358   6.753  0.0502  0.2226 -0.0965
  571UNK    C01 5132  24.932   0.431   6.813  0.2785 -0.2277 -0.2116
  571UNK    H02 5133  24.978   0.515   6.864  0.0368  0.3743 -0.9831
  571UNK    C03 5134  24.805   0.432   6.777 -0.6240  0.6148  0.1505
  571UNK    C04 5135  24.705   0.321   6.790 -0.1910  0.1430  0.2951
  571UNK    F05 5136  24.605   0.353   6.708 -0.2932  0.0464  0.1452
  571UNK    F06 5137  24.767   0.210   6.757  0.1423 -0.0348  0.1661
  571UNK    F07 5138  24.654   0.328   6.916  0.2863  0.0757  0.0877
  571UNK    H08 5139  24.767   0.524   6.735  2.3877  0.6143 -2.7076
  572UNK    F00 5140  25.690   1.297  11.204 -0.0383 -0.1098 -0.1586
  572UNK    C01 5141  25.735   1.351  11.320 -0.2813  0.0800 -0.1384
  572UNK    H02 5142  25.831   1.397  11.301 -0.0710 -0.5472 -0.5886
  572UNK    C03 5143  25.670   1.334  11.437  0.0795  0.3699 -0.1319
  572UNK    C04 5144  25.684   1.206  11.510 -0.0591  0.0266  0.3915
  572UNK    F05 5145  25.816   1.182  11.526 -0.2880 -0.1653 -0.3921
  572UNK    F06 5146  25.636   1.220  11.636 -0.0543  0.1689 -0.1600
  572UNK    F07 5147  25.631   1.100  11.450 -0.1532  0.3988  0.1264
  572UNK    H08 5148  25.649   1.418  11.503 -1.8460  0.1175 -0.4049
  573UNK    F00 5149  24.984   0.826   5.975 -0.5213 -0.0864 -0.6346
  573UNK    C01 5150  25.021   0.953   5.999 -0.5759 -0.4857  0.3126
  573UNK    H02 5151  25.003   1.013   5.910  2.2843  1.9535  1.2712
  573UNK    C03 5152  25.081   1.000   6.110 -0.1921 -0.0890 -0.4056
  573UNK    C04 5153  25.197   0.941   6.175 -0.2070  0.4790  0.0576
  573UNK    F05 5154  25.185   0.811   6.204 -0.5456  0.0946  0.5080
  573UNK    F06 5155  25.305   0.952   6.093  0.1310 -0.0560  0.8084
  573UNK    F07 5156  25.247   1.012   6.275  0.2811  0.2587  0.0871
  573UNK    H08 5157  25.062   1.102   6.143  0.9750 -0.4480  1.4732
  574UNK    F00 5158  24.756   2.133   8.658 -0.1794 -0.2151 -0.0539
  574UNK    C01 5159  24.737   2.012   8.612  0.2174 -0.2011 -0.0271
  574UNK    H02 5160  24.636   1.992   8.576 -0.3338  0.1098  1.3185
  574UNK    C03 5161  24.836   1.923   8.615  0.0364  0.7988 -0.9312
  574UNK    C04 5162  24.863   1.835   8.501 -0.1458 -0.0319  0.6603
  574UNK    F05 5163  24.751   1.778   8.449 -0.3886  0.1711 -0.5450
  574UNK    F06 5164  24.925   1.895   8.390  0.8716 -0.0498  0.3498
  574UNK    F07 5165  24.941   1.730   8.551 -0.1942 -0.4672  0.0078
  574UNK    H08 5166  24.924   1.941   8.675 -0.6653 -0.1637  0.4034
  575UNK    F00 5167  26.784   1.329   4.506 -0.2491 -0.3821 -0.1240
  575UNK    C01 5168  26.687   1.259   4.443  0.0962  0.0059 -0.6058
  575UNK    H02 5169  26.728   1.172   4.392  0.2646 -0.1444 -0.2085
  575UNK    C03 5170  26.559   1.307   4.447  0.0256 -0.0210 -0.2556
  575UNK    C04 5171  26.515   1.418   4.368 -0.3011  0.8482 -0.3209
  575UNK    F05 5172  26.603   1.518   4.383 -0.0115  0.3678  0.1646
  575UNK    F06 5173  26.520   1.381   4.236  0.2114 -0.2759 -0.0860
  575UNK    F07 5174  26.387   1.457   4.396  0.0895  0.1071 -0.4010
  575UNK    H08 5175  26.481   1.232   4.452  1.4150 -1.4914 -0.2771
  576UNK    F00 5176  27.193   2.507   3.553  0.1794  0.1649 -0.0820
  576UNK    C01 5177  27.322   2.521   3.544 -0.1340 -0.0902 -0.2322
  576UNK    H02 5178  27.379   2.447   3.601  0.1655 -0.1882 -0.6650
  576UNK    C03 5179  27.361   2.605   3.448  0.3262 -0.0800 -0.2876
  576UNK    C04 5180  27.355   2.751   3.459 -1.1311  0.3707  0.5457
  576UNK    F05 5181  27.424   2.800   3.352 -0.4397  0.2936 -0.1000
  576UNK    F06 5182  27.225   2.782   3.450  0.1566 -0.0744  0.0755
  576UNK    F07 5183  27.414   2.814   3.563  0.0130 -0.1070 -0.1305
  576UNK    H08 5184  27.380   2.565   3.350 -1.6434 -0.4649 -0.5293
  577UNK    F00 5185  21.983   3.236   9.232  0.4477 -0.4282  0.0131
  577UNK    C01 5186  22.062   3.341   9.212 -0.7222 -0.6461  0.4208
  577UNK    H02 5187  22.073   3.398   9.305 -1.3302 -0.9741  0.7039
  577UNK    C03 5188  22.089   3.378   9.085  0.6207 -0.5998 -0.2521
  577UNK    C04 5189  22.181   3.487   9.050 -0.0405 -0.6203  0.6777
  577UNK    F05 5190  22.176   3.515   8.923 -0.3668  0.2126 -0.2459
  577UNK    F06 5191  22.131   3.610   9.093 -0.2573  0.4119 -0.6802
  577UNK    F07 5192  22.304   3.469   9.099  0.0993 -0.1378  0.0887
  577UNK    H08 5193  22.048   3.322   9.003 -0.3294  0.1887 -0.3292
  578UNK    F00 5194  26.508   0.232   4.937 -0.1798 -0.1703 -0.1885
  578UNK    C01 5195  26.471   0.350   4.880 -0.2663 -0.2887  0.0306
  578UNK    H02 5196  26.432   0.329   4.781  1.1071  1.3454 -0.8813
  578UNK    C03 5197  26.516   0.469   4.920  0.3693 -0.4161  0.3069
  578UNK    C04 5198  26.427   0.587   4.917  0.1937 -0.7777  0.6468
  578UNK    F05 5199  26.488   0.694   4.969 -0.1717 -0.2030 -0.1346
  578UNK    F06 5200  26.395   0.621   4.788  0.2949  0.1887  0.4309
  578UNK    F07 5201  26.315   0.582   4.994  0.3180  0.5503  0.4315
  578UNK    H08 5202  26.619   0.496   4.936  0.7626 -1.2325 -0.8119
  579UNK    F00 5203  27.472   0.881   6.775  0.5208  0.0142  0.0755
  579UNK    C01 5204  27.477   0.779   6.686  0.2483  0.1349  0.5234
  579UNK    H02 5205  27.464   0.808   6.582 -1.1368  0.2121  0.7070
  579UNK    C03 5206  27.463   0.663   6.739  0.1122  0.3550 -0.1378
  579UNK    C04 5207  27.493   0.531   6.670 -0.3438  0.3564 -0.4319
  579UNK    F05 5208  27.404   0.437   6.713 -0.1371 -0.0247  0.4847
  579UNK    F06 5209  27.493   0.539   6.536  0.3773 -0.5915 -0.2508
  579UNK    F07 5210  27.622   0.495   6.696 -0.6040  0.2876 -0.2902
  579UNK    H08 5211  27.390   0.660   6.819  0.4129  0.9400  0.1598
  580UNK    F00 5212  27.886   3.878   5.820  0.0623  0.1004  0.1516
  580UNK    C01 5213  27.877   3.746   5.789 -0.4891 -0.1130  0.0654
  580UNK    H02 5214  27.775   3.717   5.762 -1.8558  2.1265  2.5280
  580UNK    C03 5215  27.987   3.705   5.721  0.2905 -0.6606  0.0616
  580UNK    C04 5216  27.992   3.593   5.622 -0.2946  0.3498 -0.7700
  580UNK    F05 5217  27.932   3.484   5.667  0.1957 -0.2938 -0.6072
  580UNK    F06 5218  27.932   3.633   5.507  0.1274  0.0380 -0.1189
  580UNK    F07 5219  28.127   3.574   5.585 -0.1472  0.2269 -0.1279
  580UNK    H08 5220  28.083   3.751   5.738 -0.1456  0.1944  0.2405
  581UNK    F00 5221  26.625   4.270   3.101  0.0168 -0.0356 -0.3682
  581UNK    C01 5222  26.505   4.281   3.040  0.6933 -0.4468  0.0257
  581UNK    H02 5223  26.514   4.330   2.943 -0.2562  2.8217  1.5302
  581UNK    C03 5224  26.392   4.250   3.110 -0.3635 -0.4087 -0.6990
  581UNK    C04 5225  26.267   4.228   3.042  0.6613 -1.0251  0.3344
  581UNK    F05 5226  26.234   4.338   2.970  0.2487  0.2377  0.2720
  581UNK    F06 5227  26.266   4.122   2.961  0.5426 -0.2157 -0.4828
  581UNK    F07 5228  26.164   4.203   3.122 -0.1017  0.4454 -0.5407
  581UNK    H08 5229  26.383   4.305   3.203  1.7655 -1.1855 -0.0202
  582UNK    F00 5230  27.342   3.837   9.315 -0.2727 -0.0097  0.0138
  582UNK    C01 5231  27.404   3.777   9.208 -0.7103  0.0953 -0.4276
  582UNK    H02 5232  27.480   3.844   9.168 -1.8633  0.4151 -2.1056
  582UNK    C03 5233  27.408   3.645   9.193  0.0171 -0.7019  0.1383
  582UNK    C04 5234  27.506   3.583   9.109  0.2941  0.8101 -0.3476
  582UNK    F05 5235  27.458   3.472   9.048 -0.2280 -0.1443 -0.7635
  582UNK    F06 5236  27.563   3.655   9.012 -0.1037  0.2534  0.0104
  582UNK    F07 5237  27.614   3.542   9.192 -0.2404 -0.0612 -0.3094
  582UNK    H08 5238  27.357   3.578   9.260  0.9306 -1.2337  0.2998
  583UNK    F00 5239  27.178   1.732   6.225 -0.7058 -0.7633 -0.1530
  583UNK    C01 5240  27.262   1.822   6.277  0.0962  0.9980  0.7821
  583UNK    H02 5241  27.368   1.807   6.257 -0.0471  1.6624 -0.5031
  583UNK    C03 5242  27.218   1.914   6.363 -0.8279 -0.6403 -0.3449
  583UNK    C04 5243  27.080   1.967   6.364 -0.4739  0.1047 -0.1460
  583UNK    F05 5244  26.994   1.881   6.422 -0.2889 -0.2828  0.1372
  583UNK    F06 5245  27.064   2.088   6.425 -0.1400  0.4750  0.5781
  583UNK    F07 5246  27.045   1.997   6.231 -0.1761  0.1802 -0.7979
  583UNK    H08 5247  27.284   1.942   6.443 -0.1313  0.8013 -1.4099
  584UNK    F00 5248  27.996   0.101   6.563 -0.2719 -0.4533  0.4454
  584UNK    C01 5249  27.866   0.080   6.554  0.1611 -0.2032  0.4019
  584UNK    H02 5250  27.807   0.164   6.593  1.0052 -0.3184  1.9491
  584UNK    C03 5251  27.818  -0.046   6.550 -0.0467  0.0091 -0.2724
  584UNK    C04 5252  27.826  -0.141   6.665  0.5883 -0.7537  0.3778
  584UNK    F05 5253  27.707  -0.167   6.712 -0.7764  0.2875 -0.2487
  584UNK    F06 5254  27.873  -0.258   6.613  0.0490  0.0075  0.2764
  584UNK    F07 5255  27.907  -0.111   6.773 -0.4219  0.1548  0.3688
  584UNK    H08 5256  27.732  -0.064   6.487 -1.1425  1.5816  0.7452
  585UNK    F00 5257  27.552   2.949   7.325  0.3297  0.3180  0.3882
  585UNK    C01 5258  27.585   3.068   7.275 -0.0005 -0.6235 -0.7801
  585UNK    H02 5259  27.501   3.110   7.219 -1.2532 -0.6519  1.0111
  585UNK    C03 5260  27.717   3.109   7.287  0.0535 -0.5244 -0.2119
  585UNK    C04 5261  27.765   3.245   7.260  0.9679  0.0378  0.9975
  585UNK    F05 5262  27.711   3.286   7.146 -0.3218  0.1294 -0.1367
  585UNK    F06 5263  27.726   3.314   7.368  0.3418  0.0864  0.0837
  585UNK    F07 5264  27.900   3.271   7.245  0.6414 -0.0155  0.2002
  585UNK    H08 5265  27.791   3.053   7.342  0.9644  2.6273  1.8976
  586UNK    F00 5266  25.176   4.191   4.514  0.0070  0.2553 -0.4787
  586UNK    C01 5267  25.136   4.183   4.640  0.1525 -0.4139  1.1744
  586UNK    H02 5268  25.203   4.137   4.713  1.3245  0.4610  0.6629
  586UNK    C03 5269  25.017   4.234   4.663  0.5178  0.2258  0.1826
  586UNK    C04 5270  24.898   4.168   4.609 -0.2677 -0.0052  0.4290
  586UNK    F05 5271  24.872   4.056   4.681  0.0443  0.1529 -0.0716
  586UNK    F06 5272  24.795   4.255   4.630  0.4905  0.0121  0.6456
  586UNK    F07 5273  24.896   4.140   4.473 -0.3271  0.1206  0.2381
  586UNK    H08 5274  25.013   4.342   4.662 -0.8408  0.1799 -1.7857
  587UNK    F00 5275  25.782   3.117   5.469  0.1662  0.2278 -0.2247
  587UNK    C01 5276  25.784   3.250   5.474  0.1987 -0.1047 -0.4630
  587UNK    H02 5277  25.849   3.297   5.400 -0.8441  3.7723  0.9095
  587UNK    C03 5278  25.765   3.313   5.589 -0.7978  0.0846  0.9815
  587UNK    C04 5279  25.731   3.457   5.597 -0.0536  0.4987 -0.5092
  587UNK    F05 5280  25.784   3.508   5.721 -0.1222 -0.4352 -0.3093
  587UNK    F06 5281  25.777   3.530   5.487  0.7356  0.0351 -0.2550
  587UNK    F07 5282  25.594   3.471   5.601  0.3054 -0.3147  0.0005
  587UNK    H08 5283  25.728   3.255   5.672  0.9831 -0.8370  1.1604
  588UNK    F00 5284  28.608   1.928   5.189 -0.2151  0.1747  0.8081
  588UNK    C01 5285  28.530   2.001   5.272  0.3082  0.0570  0.2383
  588UNK    H02 5286  28.433   1.952   5.273 -1.0269  2.5881  2.3480
  588UNK    C03 5287  28.581   2.089   5.355  0.4868  0.2267 -0.3209
  588UNK    C04 5288  28.507   2.126   5.476  0.3242 -0.2331  0.1679
  588UNK    F05 5289  28.375   2.145   5.439  0.1342  0.7179  0.4205
  588UNK    F06 5290  28.509   2.021   5.556 -0.2948  0.2922 -0.1315
  588UNK    F07 5291  28.565   2.237   5.531 -0.8337  0.1672 -0.0591
  588UNK    H08 5292  28.686   2.112   5.357  0.4650  0.2658  0.4671
  589UNK    F00 5293  29.507   1.005  10.054  0.0710 -0.4921 -0.6493
  589UNK    C01 5294  29.606   1.007   9.965  0.0025 -0.2722  1.4005
  589UNK    H02 5295  29.581   1.068   9.878  3.6410 -1.6275 -0.7531
  589UNK    C03 5296  29.729   0.988  10.021 -0.2783  0.0966  0.7321
  589UNK    C04 5297  29.849   1.036   9.945  0.4484 -0.8199 -0.6836
  589UNK    F05 5298  29.960   0.971   9.972  0.4491  0.1427  0.9769
  589UNK    F06 5299  29.828   1.032   9.812 -0.0871  0.0010 -0.0378
  589UNK    F07 5300  29.876   1.164   9.985  0.1632  0.1834  0.1523
  589UNK    H08 5301  29.724   0.960  10.125 -1.3416  2.6438  1.4227
  590UNK    F00 5302  27.477   4.866   7.663 -0.0097  0.0218  0.5099
  590UNK    C01 5303  27.591   4.805   7.639  0.2579  0.6942 -0.2883
  590UNK    H02 5304  27.677   4.870   7.657  1.0687 -0.8484  1.5987
  590UNK    C03 5305  27.591   4.717   7.540 -0.3370  0.2201  0.1954
  590UNK    C04 5306  27.670   4.590   7.532  0.3605  1.2145  0.4548
  590UNK    F05 5307  27.614   4.478   7.586 -0.0744 -0.7038  0.3892
  590UNK    F06 5308  27.677   4.547   7.404  0.6774 -0.4861  0.2762
  590UNK    F07 5309  27.794   4.611   7.583  0.1245 -0.0693  0.9117
  590UNK    H08 5310  27.538   4.743   7.450 -0.3721 -1.9013 -0.4209
  591UNK    F00 5311  26.907   0.269   8.523  0.3888  0.0671  0.0909
  591UNK    C01 5312  26.954   0.236   8.403  0.3470 -0.2076  0.5483
  591UNK    H02 5313  26.900   0.304   8.336  0.7848  0.4593  0.8575
  591UNK    C03 5314  27.081   0.192   8.385  0.8340 -0.4841  0.1640
  591UNK    C04 5315  27.149   0.223   8.261  0.6395 -0.2628  0.2558
  591UNK    F05 5316  27.172   0.351   8.270  0.2815  0.5266  0.3883
  591UNK    F06 5317  27.270   0.154   8.252 -0.1227 -0.1716 -0.6700
  591UNK    F07 5318  27.070   0.195   8.162 -0.1433  0.4338 -0.4628
  591UNK    H08 5319  27.153   0.198   8.466  0.3655 -0.5659  0.5896
  592UNK    F00 5320  26.867   4.281   5.837 -0.1214 -0.3095  0.1487
  592UNK    C01 5321  26.841   4.360   5.936  0.4301  0.3553  0.4407
  592UNK    H02 5322  26.754   4.424   5.922  0.8432  1.2587  1.8621
  592UNK    C03 5323  26.877   4.323   6.058 -0.4144  0.0408 -0.2017
  592UNK    C04 5324  26.833   4.379   6.186  0.1571  0.4184  1.0923
  592UNK    F05 5325  26.925   4.378   6.282  0.2315 -0.1383 -0.1789
  592UNK    F06 5326  26.796   4.508   6.187 -0.1640  0.4083 -0.2274
  592UNK    F07 5327  26.726   4.316   6.238 -0.1090 -0.1857 -0.5364
  592UNK    H08 5328  26.911   4.222   6.075 -1.7603 -0.6389 -1.4269
  593UNK    F00 5329  25.931   1.023   8.644 -0.3320 -0.4137  0.5767
  593UNK    C01 5330  26.065   1.001   8.639 -0.1975 -0.4570 -0.5655
  593UNK    H02 5331  26.102   0.963   8.543 -0.6188 -0.6483 -0.6536
  593UNK    C03 5332  26.138   1.052   8.734  0.1242  0.3289 -0.0591
  593UNK    C04 5333  26.266   1.002   8.776  0.1049 -0.2561 -0.0929
  593UNK    F05 5334  26.272   0.867   8.755  0.2796  0.0328  0.6324
  593UNK    F06 5335  26.374   1.047   8.703  0.2099 -0.8750 -0.0951
  593UNK    F07 5336  26.290   1.024   8.908  0.1989 -0.0300 -0.2635
  593UNK    H08 5337  26.095   1.136   8.787  0.9462  1.6154 -1.3898
  594UNK    F00 5338  28.216   1.094   9.108  0.2932 -0.3092 -0.1478
  594UNK    C01 5339  28.164   1.122   8.986 -0.3134 -0.2893 -0.4580
  594UNK    H02 5340  28.073   1.181   8.985  0.5508  1.0834  0.2428
  594UNK    C03 5341  28.235   1.078   8.883  0.1790 -0.5448  0.0029
  594UNK    C04 5342  28.186   1.072   8.746 -0.0823  0.0077 -0.1538
  594UNK    F05 5343  28.181   1.186   8.675 -0.1057  0.1173 -0.4107
  594UNK    F06 5344  28.256   0.979   8.676 -0.1555  0.0023 -0.0506
  594UNK    F07 5345  28.058   1.027   8.747 -0.3981  0.0544  0.0009
  594UNK    H08 5346  28.336   1.040   8.896 -0.2784 -1.6718  0.3387
  595UNK    F00 5347  25.032   3.638   4.946  0.0537 -0.0109 -0.4214
  595UNK    C01 5348  25.029   3.654   4.815  0.0442  0.5282  0.4137
  595UNK    H02 5349  25.049   3.754   4.776 -1.2111  0.7633  0.3471
  595UNK    C03 5350  24.976   3.552   4.747 -0.4001  0.4184 -0.3882
  595UNK    C04 5351  25.018   3.493   4.621 -0.4664 -0.3417 -0.4136
  595UNK    F05 5352  24.913   3.439   4.561  0.2693 -0.2810 -0.5275
  595UNK    F06 5353  25.067   3.590   4.540 -0.4011 -0.4361  0.2607
  595UNK    F07 5354  25.111   3.393   4.643 -0.1029 -0.2357  0.4455
  595UNK    H08 5355  24.894   3.498   4.792 -0.3651 -0.3563 -1.2426
  596UNK    F00 5356  27.802   0.879   7.403  0.6999  0.2539  0.6296
  596UNK    C01 5357  27.686   0.804   7.385 -0.0938 -0.0706  0.1892
  596UNK    H02 5358  27.699   0.710   7.439  1.5712  0.4089  0.6691
  596UNK    C03 5359  27.617   0.809   7.270  0.4963  0.1943 -0.8682
  596UNK    C04 5360  27.643   0.723   7.154  0.5485  0.1199 -0.2057
  596UNK    F05 5361  27.776   0.711   7.142  0.1646 -0.5132 -0.3418
  596UNK    F06 5362  27.580   0.608   7.180  0.0894  0.2436  0.1956
  596UNK    F07 5363  27.581   0.781   7.049  0.0550 -0.0003  0.0894
  596UNK    H08 5364  27.571   0.903   7.246  0.5331  1.0447  2.1995
  597UNK    F00 5365  27.255   4.630   7.426  0.1315 -0.3748 -0.2990
  597UNK    C01 5366  27.122   4.638   7.418  0.2682 -0.8489  0.4740
  597UNK    H02 5367  27.078   4.584   7.501 -0.8493  0.1329  0.5384
  597UNK    C03 5368  27.073   4.728   7.333  0.7878  0.7338  0.6207
  597UNK    C04 5369  27.115   4.866   7.300  0.5060  0.0287 -0.2407
  597UNK    F05 5370  27.233   4.878   7.230  0.5086  0.1732  0.5334
  597UNK    F06 5371  27.043   4.915   7.193  0.5022  0.4900 -0.2677
  597UNK    F07 5372  27.121   4.958   7.402  0.1886  0.1922 -0.6705
  597UNK    H08 5373  26.990   4.693   7.272 -1.2022 -0.3410  3.8206
  598UNK    F00 5374  25.739   2.730   7.955  0.2299  0.0109 -0.2176
  598UNK    C01 5375  25.730   2.838   7.885  0.2976  0.0194  0.3062
  598UNK    H02 5376  25.676   2.915   7.940 -1.3602  0.2757 -1.6406
  598UNK    C03 5377  25.783   2.853   7.767 -0.5268 -0.3786  0.5407
  598UNK    C04 5378  25.821   2.984   7.703  0.3453 -0.3717  0.6993
  598UNK    F05 5379  25.840   2.979   7.569 -0.3887 -0.1302 -0.1615
  598UNK    F06 5380  25.724   3.077   7.719 -0.0486 -0.1506  0.0714
  598UNK    F07 5381  25.936   3.030   7.760  0.0777  0.3321  0.1874
  598UNK    H08 5382  25.814   2.765   7.713 -0.1666 -2.1735  3.5563
  599UNK    F00 5383  25.038   4.221  10.700 -0.0179  0.3453 -0.2517
  599UNK    C01 5384  25.053   4.170  10.577  0.1690 -0.3093 -0.5419
  599UNK    H02 5385  25.160   4.160  10.558  0.3618 -0.8096  0.7636
  599UNK    C03 5386  24.953   4.104  10.516 -0.4316 -0.5169 -0.0418
  599UNK    C04 5387  24.979   4.037  10.382  0.1552 -0.1885 -0.0008
  599UNK    F05 5388  25.074   3.944  10.408  0.3908 -0.1682  0.4137
  599UNK    F06 5389  24.863   3.983  10.334  0.1636 -0.6046  0.3752
  599UNK    F07 5390  25.017   4.116  10.280 -0.7939 -0.0633 -0.7707
  599UNK    H08 5391  24.858   4.088  10.564 -1.2986 -0.4283 -1.6718
  600UNK    F00 5392  25.348   0.966   4.697  0.0269 -0.1375 -0.2008
  600UNK    C01 5393  25.321   1.076   4.778 -0.2451 -0.6320  0.4055
  600UNK    H02 5394  25.324   1.051   4.884  0.9985 -0.4418  0.4169
  600UNK    C03 5395  25.249   1.178   4.732 -0.0933  0.3436 -0.1407
  600UNK    C04 5396  25.221   1.304   4.809  0.3513  0.2289 -0.2123
  600UNK    F05 5397  25.263   1.424   4.754 -0.3979  0.2838  0.0390
  600UNK    F06 5398  25.085   1.306   4.834 -0.3114  0.2980 -0.1131
  600UNK    F07 5399  25.288   1.302   4.923 -0.5002  0.1951 -0.1105
  600UNK    H08 5400  25.174   1.158   4.657 -2.6325 -0.6133  2.5635
  601UNK    F00 5401  25.613   3.450   6.268 -0.3911  0.2135 -0.5474
  601UNK    C01 5402  25.626   3.576   6.313 -0.3982 -0.6047 -0.7687
  601UNK    H02 5403  25.544   3.634   6.271 -0.3148  0.2221  0.1814
  601UNK    C03 5404  25.716   3.612   6.398 -0.2666  0.5744  0.1833
  601UNK    C04 5405  25.687   3.695   6.513 -0.0508  0.0330 -0.6199
  601UNK    F05 5406  25.636   3.818   6.480  0.8430  0.1576  0.3829
  601UNK    F06 5407  25.584   3.635   6.582 -0.8019 -0.0955  0.0661
  601UNK    F07 5408  25.793   3.700   6.597  0.1952  0.0767  0.9245
  601UNK    H08 5409  25.773   3.529   6.439 -0.5706 -0.5328 -1.5661
  602UNK    F00 5410  24.665   2.033   8.211 -0.1037 -0.2573 -0.0165
  602UNK    C01 5411  24.667   2.011   8.075  0.0732  0.1050 -0.2625
  602UNK    H02 5412  24.561   2.002   8.051 -0.4541  0.6256  1.7628
  602UNK    C03 5413  24.768   1.943   8.021  0.3794  0.0365  0.0781
  602UNK    C04 5414  24.773   1.901   7.880 -0.2161 -0.2190  0.6186
  602UNK    F05 5415  24.797   1.996   7.792  0.4382 -0.5637 -0.0706
  602UNK    F06 5416  24.874   1.809   7.873  0.3723 -0.0926  0.3035
  602UNK    F07 5417  24.661   1.838   7.837  0.1993 -0.0769 -0.2782
  602UNK    H08 5418  24.867   1.932   8.062 -0.1265 -1.5212  0.9342
  603UNK    F00 5419  27.537   4.797   9.013 -0.0817 -0.0886 -0.1058
  603UNK    C01 5420  27.405   4.811   9.002 -0.3362  0.4624  0.7374
  603UNK    H02 5421  27.346   4.780   9.088  0.2748 -0.5649  0.7995
  603UNK    C03 5422  27.355   4.829   8.885 -0.1079  0.0503 -0.0253
  603UNK    C04 5423  27.393   4.917   8.777  0.1220 -0.2688  0.3370
  603UNK    F05 5424  27.426   5.039   8.815  0.1216 -0.5955 -0.2491
  603UNK    F06 5425  27.501   4.868   8.708  0.2169  0.4133 -0.6011
  603UNK    F07 5426  27.297   4.935   8.688 -0.0482 -0.5869 -0.1037
  603UNK    H08 5427  27.269   4.767   8.863 -0.0377 -0.2700  0.5781
  604UNK    F00 5428  27.440   3.353   8.112 -0.0837  0.0223  0.3710
  604UNK    C01 5429  27.347   3.288   8.177  0.0338  0.4159 -0.8365
  604UNK    H02 5430  27.318   3.193   8.130  0.3501 -0.3930  0.5791
  604UNK    C03 5431  27.334   3.328   8.302  0.5172 -0.1173 -0.3857
  604UNK    C04 5432  27.269   3.453   8.340  0.4464  0.6194 -0.4792
  604UNK    F05 5433  27.314   3.491   8.466 -0.3729 -0.1239  0.6315
  604UNK    F06 5434  27.299   3.554   8.250  0.1180  0.2978 -0.4773
  604UNK    F07 5435  27.136   3.446   8.335 -0.1524  0.0968  0.0678
  604UNK    H08 5436  27.389   3.293   8.388  0.6685  2.1495  0.4681
  605UNK    F00 5437  25.319   4.200   7.143  0.1883 -0.2355 -0.3131
  605UNK    C01 5438  25.223   4.296   7.164 -0.1093  0.0977  0.5064
  605UNK    H02 5439  25.264   4.395   7.187 -0.0070 -0.1099  1.2278
  605UNK    C03 5440  25.101   4.267   7.121  0.1506  0.1753  0.3791
  605UNK    C04 5441  25.011   4.184   7.200  0.1867  0.1665 -0.7707
  605UNK    F05 5442  24.984   4.230   7.328 -0.0578  0.3966  0.2641
  605UNK    F06 5443  24.890   4.192   7.147  0.2139  0.0027 -0.8243
  605UNK    F07 5444  25.039   4.051   7.213  0.1695  0.2601  0.0642
  605UNK    H08 5445  25.050   4.346   7.068  0.7062  0.2626 -0.0298
  606UNK    F00 5446  25.242   5.022   4.112  0.7813  0.0141  0.3201
  606UNK    C01 5447  25.338   5.085   4.042  0.1988 -0.2662  0.2027
  606UNK    H02 5448  25.430   5.076   4.101  0.0759  0.2701  0.4774
  606UNK    C03 5449  25.300   5.194   3.974 -0.5209  0.1367 -0.2553
  606UNK    C04 5450  25.355   5.239   3.849  0.4414 -0.5447  0.1237
  606UNK    F05 5451  25.330   5.366   3.829  0.2628 -0.0571 -0.0764
  606UNK    F06 5452  25.486   5.221   3.829 -0.1777  0.7561 -0.3966
  606UNK    F07 5453  25.306   5.167   3.749  0.0106  0.3773  0.1226
  606UNK    H08 5454  25.218   5.260   4.000 -1.2248 -0.1165 -1.7980
  607UNK    F00 5455  27.927   0.985   7.693  0.0160  0.2126  0.0610
  607UNK    C01 5456  27.809   1.039   7.720  1.0597 -0.1561  0.4454
  607UNK    H02 5457  27.743   1.016   7.636 -0.4657 -1.1253  1.8641
  607UNK    C03 5458  27.798   1.130   7.814  0.5293 -0.0144  0.2352
  607UNK    C04 5459  27.670   1.182   7.864 -0.3470  0.4896  0.0382
  607UNK    F05 5460  27.629   1.098   7.963 -0.0210 -0.1035 -0.6476
  607UNK    F06 5461  27.690   1.308   7.913  0.3317  0.4036  0.2543
  607UNK    F07 5462  27.576   1.184   7.765  0.4222 -0.6727  0.3067
  607UNK    H08 5463  27.884   1.176   7.862  1.3335  0.0432 -1.2159
  608UNK    F00 5464  27.027   2.389   6.916 -0.0771 -0.6311  0.1697
  608UNK    C01 5465  27.038   2.432   7.041  0.3875 -0.1983 -0.2747
  608UNK    H02 5466  26.942   2.457   7.088  0.5455 -0.5180  0.2256
  608UNK    C03 5467  27.152   2.418   7.104  0.2736 -0.2020 -0.3480
  608UNK    C04 5468  27.164   2.393   7.245 -0.0597 -0.6098  0.1417
  608UNK    F05 5469  27.128   2.264   7.277  0.1361  0.3154 -0.0557
  608UNK    F06 5470  27.294   2.415   7.289 -0.2358 -0.1323  0.1323
  608UNK    F07 5471  27.093   2.474   7.328 -0.1386  0.5098 -0.2165
  608UNK    H08 5472  27.231   2.484   7.072 -1.8588  3.5723  1.7963
  609UNK    F00 5473  24.745   1.842   5.081  0.1878 -0.2223 -0.2884
  609UNK    C01 5474  24.861   1.881   5.145  0.2665  0.4114  1.0364
  609UNK    H02 5475  24.855   1.855   5.251  0.3584 -0.9807  0.7180
  609UNK    C03 5476  24.942   1.964   5.084 -0.5570 -0.1421 -0.0800
  609UNK    C04 5477  25.074   1.993   5.146 -0.3560  0.4163 -0.1218
  609UNK    F05 5478  25.187   1.921   5.123 -0.4152 -0.5043  0.4138
  609UNK    F06 5479  25.113   2.114   5.102 -0.0057  0.2408  0.4557
  609UNK    F07 5480  25.046   2.019   5.279  0.0130  0.1191  0.0301
  609UNK    H08 5481  24.933   1.961   4.977  1.5606  0.1346 -0.2670
  610UNK    F00 5482  25.580   1.467  10.023 -0.1521 -0.2933 -0.5223
  610UNK    C01 5483  25.578   1.468   9.884 -0.0369 -0.0664  0.1715
  610UNK    H02 5484  25.567   1.365   9.849 -2.6116 -1.0506  3.5394
  610UNK    C03 5485  25.630   1.560   9.807  0.7095 -0.4830 -0.2873
  610UNK    C04 5486  25.589   1.701   9.803 -0.4025  0.1439  0.5932
  610UNK    F05 5487  25.453   1.707   9.820  0.0213 -0.1951  0.0405
  610UNK    F06 5488  25.650   1.761   9.908 -0.3471 -0.1089  0.6488
  610UNK    F07 5489  25.624   1.765   9.690  0.2629  0.0458 -0.8226
  610UNK    H08 5490  25.693   1.529   9.724  1.3075 -0.3150  0.1015
  611UNK    F00 5491  26.810   2.333   6.365 -0.0191 -0.5423  0.5390
  611UNK    C01 5492  26.902   2.403   6.434  0.3506  0.3758  0.7688
  611UNK    H02 5493  26.958   2.329   6.491  0.8887 -0.0632 -0.3311
  611UNK    C03 5494  26.849   2.517   6.485  0.0947  0.7363  0.6635
  611UNK    C04 5495  26.760   2.536   6.599  0.1067 -0.3249  0.4331
  611UNK    F05 5496  26.832   2.568   6.705  0.0020 -0.1792  0.0804
  611UNK    F06 5497  26.661   2.626   6.586  0.0399 -0.2922  0.0945
  611UNK    F07 5498  26.683   2.429   6.615 -0.3048  0.6216 -0.1247
  611UNK    H08 5499  26.882   2.605   6.433  0.5475 -1.1210 -2.3357
  612UNK    F00 5500  27.888   2.001   8.899  0.0221  0.0710 -0.4428
  612UNK    C01 5501  27.911   1.870   8.883 -0.0312 -0.5242 -0.1521
  612UNK    H02 5502  27.954   1.822   8.971  0.5544  1.3039  0.5728
  612UNK    C03 5503  27.891   1.802   8.770 -0.6774  0.3439 -0.2361
  612UNK    C04 5504  28.000   1.752   8.689  0.4817 -0.3315 -0.3019
  612UNK    F05 5505  28.054   1.638   8.732  0.3510 -0.5002  0.1705
  612UNK    F06 5506  27.952   1.721   8.570 -0.3783 -0.2829  0.0687
  612UNK    F07 5507  28.099   1.842   8.660  0.3475 -0.0993  0.0165
  612UNK    H08 5508  27.793   1.757   8.758 -0.7645  0.3980  0.2425
  613UNK    F00 5509  24.491   3.554   5.830 -0.2102  0.5853  0.4070
  613UNK    C01 5510  24.497   3.425   5.784 -0.5235  0.1337 -0.9566
  613UNK    H02 5511  24.398   3.382   5.767 -1.2871  2.0477 -1.5503
  613UNK    C03 5512  24.620   3.373   5.756 -0.7140  0.2147  0.5097
  613UNK    C04 5513  24.652   3.280   5.646  0.0034  0.1013 -0.4733
  613UNK    F05 5514  24.546   3.215   5.604 -0.2423  0.1837 -0.1515
  613UNK    F06 5515  24.697   3.353   5.547  0.2186  0.0966 -0.2379
  613UNK    F07 5516  24.747   3.190   5.679 -0.0552  0.1085  0.6658
  613UNK    H08 5517  24.709   3.421   5.792 -1.0729  0.4991  1.0364
  614UNK    F00 5518  27.156   1.490   4.961  0.3460 -0.1034 -0.1335
  614UNK    C01 5519  27.074   1.595   4.980 -0.5820  0.3066  0.1936
  614UNK    H02 5520  26.975   1.574   4.939 -0.1875 -2.5220  0.5944
  614UNK    C03 5521  27.120   1.707   5.040  0.4557  0.8664 -0.4800
  614UNK    C04 5522  27.234   1.780   4.983 -0.2735  0.1041 -0.3652
  614UNK    F05 5523  27.303   1.857   5.068  0.0780  0.3084  0.0701
  614UNK    F06 5524  27.325   1.690   4.938 -0.1060  0.5429  0.1562
  614UNK    F07 5525  27.189   1.849   4.878 -0.6685 -0.1838 -0.5005
  614UNK    H08 5526  27.045   1.768   5.087 -0.3169  1.1939 -2.1068
  615UNK    F00 5527  26.443   4.351   7.184  0.0151 -0.4595 -0.0916
  615UNK    C01 5528  26.473   4.239   7.257  1.1055  0.7028 -0.4172
  615UNK    H02 5529  26.528   4.266   7.348 -0.3195 -1.2957  1.0897
  615UNK    C03 5530  26.452   4.117   7.204  0.4479  0.2639  0.3920
  615UNK    C04 5531  26.473   3.995   7.270  0.5318  0.3750  0.6645
  615UNK    F05 5532  26.464   3.887   7.187 -0.1270 -0.2820  0.4074
  615UNK    F06 5533  26.592   3.983   7.327 -0.2624 -0.3963 -0.3266
  615UNK    F07 5534  26.373   3.962   7.354 -0.1165 -0.0198  0.0387
  615UNK    H08 5535  26.465   4.106   7.098 -1.4426  2.3234 -0.1064
  616UNK    F00 5536  25.923   2.556   8.290  0.0757  0.7189 -0.1521
  616UNK    C01 5537  25.991   2.437   8.287  0.9157 -0.4047  0.5654
  616UNK    H02 5538  26.092   2.447   8.325  1.6085  1.2286 -1.6375
  616UNK    C03 5539  25.956   2.352   8.193  0.3952 -0.6484 -0.4188
  616UNK    C04 5540  25.984   2.209   8.188 -0.3979 -0.8415 -0.0267
  616UNK    F05 5541  26.101   2.174   8.240 -0.2406  0.1409  0.2173
  616UNK    F06 5542  25.896   2.136   8.267 -0.1213 -0.5456  0.2496
  616UNK    F07 5543  25.965   2.166   8.063 -0.2160  0.7524  0.2072
  616UNK    H08 5544  25.909   2.396   8.105  0.0018  0.6867  0.4481
  617UNK    F00 5545  28.115   1.124   6.892 -0.0109  0.4328  0.0563
  617UNK    C01 5546  28.031   1.146   6.795 -0.2488  0.5181 -0.2917
  617UNK    H02 5547  28.084   1.190   6.711  2.2391 -0.1519  0.8953
  617UNK    C03 5548  27.893   1.136   6.803  0.1266  0.1617 -0.0084
  617UNK    C04 5549  27.812   1.121   6.681 -0.7124  0.4418 -0.6490
  617UNK    F05 5550  27.685   1.132   6.707  0.0473 -0.3986  0.0505
  617UNK    F06 5551  27.835   1.222   6.597 -0.4474 -0.0797 -0.3063
  617UNK    F07 5552  27.832   1.014   6.607  0.2552  0.1599 -0.0720
  617UNK    H08 5553  27.853   1.071   6.880 -0.9931  0.3134 -0.4461
  618UNK    F00 5554  27.328   2.306   6.853  0.1071  0.2213  0.2580
  618UNK    C01 5555  27.363   2.392   6.762 -0.3584 -0.1889 -0.2188
  618UNK    H02 5556  27.288   2.454   6.712  1.3908  1.4311 -0.8724
  618UNK    C03 5557  27.491   2.392   6.737 -0.6367 -0.2186 -0.4998
  618UNK    C04 5558  27.564   2.500   6.662  0.1488 -0.5157 -0.2469
  618UNK    F05 5559  27.693   2.470   6.649  0.3271 -0.4300  0.6121
  618UNK    F06 5560  27.515   2.535   6.541 -0.1026 -0.6045  0.3828
  618UNK    F07 5561  27.547   2.613   6.723 -0.0666  0.2279  0.2383
  618UNK    H08 5562  27.559   2.354   6.812 -0.0188  1.8198  0.0331
  619UNK    F00 5563  27.574   2.251   7.502  0.1562  0.2427  0.0211
  619UNK    C01 5564  27.521   2.224   7.381  0.0595  0.1628 -0.3106
  619UNK    H02 5565  27.427   2.169   7.393  0.2891  0.2583  2.2031
  619UNK    C03 5566  27.597   2.232   7.275  0.2253  0.2726 -0.0354
  619UNK    C04 5567  27.537   2.252   7.146  0.0782 -0.4616 -0.1551
  619UNK    F05 5568  27.420   2.185   7.133 -0.0501  0.2271  0.4342
  619UNK    F06 5569  27.502   2.381   7.133  0.0963 -0.4515  0.5016
  619UNK    F07 5570  27.632   2.234   7.055 -0.5873 -0.1323  0.1738
  619UNK    H08 5571  27.689   2.175   7.272  0.3118  0.3958  0.3536
  620UNK    F00 5572  29.275   0.464   9.592  0.9414  0.1159  0.2079
  620UNK    C01 5573  29.356   0.553   9.649  0.1498 -0.0400  0.0499
  620UNK    H02 5574  29.456   0.515   9.674  0.3746 -0.1246 -0.9614
  620UNK    C03 5575  29.306   0.669   9.687 -0.1445 -0.0192 -0.6118
  620UNK    C04 5576  29.319   0.731   9.825 -0.6338 -0.1277 -0.1152
  620UNK    F05 5577  29.437   0.793   9.812  0.3483  0.0999  0.0872
  620UNK    F06 5578  29.227   0.821   9.846  0.5194  0.0222 -0.6326
  620UNK    F07 5579  29.321   0.649   9.936 -0.1351 -0.4651  0.1367
  620UNK    H08 5580  29.234   0.714   9.621 -0.6949  0.9996  0.6662
  621UNK    F00 5581  27.490   3.228  10.242  0.5063 -0.0230  0.1048
  621UNK    C01 5582  27.517   3.156  10.353  0.7706 -0.0059 -0.3111
  621UNK    H02 5583  27.495   3.049  10.346  0.8178 -0.0767  0.5596
  621UNK    C03 5584  27.538   3.225  10.461  0.7667 -0.5191 -0.4797
  621UNK    C04 5585  27.615   3.180  10.577 -0.0487 -0.5415 -0.0896
  621UNK    F05 5586  27.598   3.234  10.701 -0.3820 -0.1309  0.0665
  621UNK    F06 5587  27.592   3.048  10.591  0.0483 -0.0753  0.1751
  621UNK    F07 5588  27.749   3.184  10.552  0.0371 -0.3335  0.0520
  621UNK    H08 5589  27.526   3.332  10.449  1.9402 -0.6408 -3.1486
  622UNK    F00 5590  25.398   2.480   4.673 -0.4126  0.3329 -0.2040
  622UNK    C01 5591  25.489   2.524   4.581  0.3882 -0.3442 -0.4280
  622UNK    H02 5592  25.448   2.543   4.482  0.8908  1.1137 -0.3626
  622UNK    C03 5593  25.619   2.513   4.603  0.1039 -0.2847 -0.9996
  622UNK    C04 5594  25.701   2.623   4.553 -0.2446 -0.1116 -0.3566
  622UNK    F05 5595  25.677   2.741   4.620 -0.1883 -0.0194 -0.3287
  622UNK    F06 5596  25.826   2.584   4.579 -0.3108  0.3675  0.0022
  622UNK    F07 5597  25.702   2.654   4.425  0.2188  0.4079  0.0902
  622UNK    H08 5598  25.654   2.478   4.699  2.7105  2.4949 -0.8495
  623UNK    F00 5599  25.737   0.134   9.135  0.3703 -0.3011 -0.4817
  623UNK    C01 5600  25.613   0.120   9.186  0.4054 -0.0426  0.0092
  623UNK    H02 5601  25.559   0.029   9.159  1.8098 -0.9332  0.1648
  623UNK    C03 5602  25.564   0.221   9.259 -0.4176 -0.5332  0.8032
  623UNK    C04 5603  25.615   0.243   9.394  1.0216 -0.2932 -0.0425
  623UNK    F05 5604  25.531   0.327   9.461  0.3443  0.2131  0.6992
  623UNK    F06 5605  25.625   0.133   9.471 -0.4786  0.5050  0.0820
  623UNK    F07 5606  25.739   0.301   9.385 -0.0545 -0.0454 -0.2473
  623UNK    H08 5607  25.530   0.313   9.213  1.4018 -0.2654 -0.0415
  624UNK    F00 5608  26.315   0.072   6.522 -0.2703  0.1499 -0.2013
  624UNK    C01 5609  26.434   0.009   6.521  0.4626 -0.9901 -0.5254
  624UNK    H02 5610  26.464   0.012   6.626 -5.4521  1.8547  1.3092
  624UNK    C03 5611  26.494  -0.048   6.416 -0.0861  0.3713  0.7722
  624UNK    C04 5612  26.590  -0.161   6.424 -0.7235 -0.1956  0.8102
  624UNK    F05 5613  26.568  -0.266   6.513  0.3127 -0.0174 -0.1805
  624UNK    F06 5614  26.620  -0.210   6.303  0.0903 -0.5872 -0.1855
  624UNK    F07 5615  26.702  -0.102   6.471 -0.3772 -0.0499 -0.5997
  624UNK    H08 5616  26.520   0.017   6.334 -0.7413  1.5160  1.4562
  625UNK    F00 5617  26.291   3.887   9.086 -0.0324 -0.2690 -0.1221
  625UNK    C01 5618  26.390   3.800   9.137  0.5495 -0.6580 -0.1258
  625UNK    H02 5619  26.486   3.850   9.136 -0.0509  0.5503  1.0061
  625UNK    C03 5620  26.368   3.676   9.172  0.3907  0.6598 -0.7603
  625UNK    C04 5621  26.439   3.614   9.283  0.7018 -0.0737 -0.2246
  625UNK    F05 5622  26.354   3.599   9.393  0.3506  0.2810 -0.0495
  625UNK    F06 5623  26.510   3.506   9.239  0.1054 -0.5664 -0.0825
  625UNK    F07 5624  26.529   3.695   9.329 -0.0129  0.2825 -0.1188
  625UNK    H08 5625  26.343   3.611   9.089 -1.3394  1.3291 -0.7810
  626UNK    F00 5626  25.486   0.010   7.996  0.3991 -0.2064 -0.1272
  626UNK    C01 5627  25.586   0.051   8.070 -0.1275  0.6653 -0.1879
  626UNK    H02 5628  25.659   0.093   8.001  2.1711 -2.3982  0.2855
  626UNK    C03 5629  25.572   0.062   8.201  0.2340  0.9580  0.1583
  626UNK    C04 5630  25.448   0.101   8.270  0.7097  0.0535 -0.4225
  626UNK    F05 5631  25.464   0.153   8.394  0.1133  0.2375 -0.2023
  626UNK    F06 5632  25.373   0.193   8.205 -0.0171 -0.4949 -0.2072
  626UNK    F07 5633  25.364  -0.003   8.292 -0.0951 -0.1130 -0.3363
  626UNK    H08 5634  25.665   0.056   8.256 -0.0160  0.5104  0.5313
  627UNK    F00 5635  25.504   2.171   7.460 -0.1455 -0.4366 -0.0256
  627UNK    C01 5636  25.415   2.132   7.550  0.2411 -0.1990 -0.0130
  627UNK    H02 5637  25.323   2.190   7.540  0.7020  0.8451  1.5976
  627UNK    C03 5638  25.461   2.058   7.652  0.4084 -0.3698 -0.2852
  627UNK    C04 5639  25.520   2.124   7.776 -0.3617  0.0325 -0.0489
  627UNK    F05 5640  25.602   2.037   7.829  0.2609 -0.5003 -0.4518
  627UNK    F06 5641  25.594   2.232   7.748 -0.0987  0.3290 -0.3574
  627UNK    F07 5642  25.421   2.151   7.857  0.1140 -0.6102  0.2958
  627UNK    H08 5643  25.478   1.951   7.650 -0.5409 -0.5180 -3.2698
  628UNK    F00 5644  25.261   1.430   7.347  0.5226 -0.2116  0.1559
  628UNK    C01 5645  25.356   1.506   7.292 -0.0042 -0.1078  0.7192
  628UNK    H02 5646  25.366   1.495   7.184 -1.3178 -0.2939  0.6139
  628UNK    C03 5647  25.407   1.596   7.373  0.3829  0.5318  0.0185
  628UNK    C04 5648  25.460   1.729   7.341 -0.3230 -0.1063 -0.0156
  628UNK    F05 5649  25.483   1.739   7.208  0.3791  0.3149  0.2965
  628UNK    F06 5650  25.364   1.822   7.366  0.6981  0.0563  0.2337
  628UNK    F07 5651  25.579   1.746   7.412 -0.4508 -0.0885  0.5122
  628UNK    H08 5652  25.423   1.562   7.474  0.6601  0.0646 -0.1810
  629UNK    F00 5653  29.499   1.804   6.148 -0.0856  0.3012 -0.0076
  629UNK    C01 5654  29.569   1.764   6.250 -0.4288  0.4540  0.5120
  629UNK    H02 5655  29.513   1.693   6.310 -0.0811 -0.0529  0.2321
  629UNK    C03 5656  29.693   1.820   6.262  0.0789  0.2721  0.0571
  629UNK    C04 5657  29.798   1.803   6.155  0.1556  0.4537  0.2856
  629UNK    F05 5658  29.930   1.814   6.189  0.2703  0.1272 -0.4257
  629UNK    F06 5659  29.788   1.682   6.094 -0.0779  0.0696  0.1282
  629UNK    F07 5660  29.770   1.899   6.066  0.5370 -0.1013  0.0040
  629UNK    H08 5661  29.710   1.893   6.340  2.2700 -0.0304 -0.1200
  630UNK    F00 5662  24.768   3.738   5.570  0.0946 -0.0648  0.1891
  630UNK    C01 5663  24.787   3.720   5.438 -0.4525 -0.3885 -0.7192
  630UNK    H02 5664  24.729   3.804   5.399  1.3324  0.7904 -0.9021
  630UNK    C03 5665  24.899   3.678   5.381  0.0488  0.0503  0.5207
  630UNK    C04 5666  24.971   3.743   5.267 -0.4691  0.1105 -0.5360
  630UNK    F05 5667  25.058   3.654   5.215  0.1122  0.4188 -0.6288
  630UNK    F06 5668  24.887   3.757   5.162  0.2167  0.2403 -0.4152
  630UNK    F07 5669  25.046   3.853   5.290  0.0850 -0.4430 -0.0926
  630UNK    H08 5670  24.916   3.571   5.376 -1.6375 -0.1734 -1.2429
  631UNK    F00 5671  27.170   1.809   5.409  0.1901  0.3112  0.7559
  631UNK    C01 5672  27.174   1.754   5.534  0.2439 -0.2660  0.3806
  631UNK    H02 5673  27.241   1.815   5.595  0.4654  1.1827 -1.2661
  631UNK    C03 5674  27.093   1.654   5.559 -0.1466 -0.2275  0.0636
  631UNK    C04 5675  27.043   1.606   5.688  0.6497 -0.4665 -0.1634
  631UNK    F05 5676  26.921   1.656   5.715 -0.1653  0.8980  0.3507
  631UNK    F06 5677  27.039   1.472   5.687  0.1566  0.1225 -0.1164
  631UNK    F07 5678  27.126   1.645   5.791  0.0660 -0.0717 -0.0915
  631UNK    H08 5679  27.068   1.590   5.476  0.0994 -0.2811  0.0300
  632UNK    F00 5680  26.217   0.263   8.053 -0.4978  0.3564  0.1427
  632UNK    C01 5681  26.110   0.199   8.100  0.4515  0.3694 -0.1477
  632UNK    H02 5682  26.040   0.162   8.025  0.8487  0.8349 -0.7559
  632UNK    C03 5683  26.080   0.214   8.230 -0.8958  0.4446  0.8527
  632UNK    C04 5684  26.026   0.092   8.293  0.7696  0.3287 -0.1495
  632UNK    F05 5685  25.930   0.032   8.224  0.2818 -0.5685 -0.6151
  632UNK    F06 5686  26.116  -0.009   8.316  0.0247 -0.0237 -0.2008
  632UNK    F07 5687  25.973   0.125   8.414  0.0588  0.1310  0.6085
  632UNK    H08 5688  26.127   0.287   8.295  0.8551  0.1655 -0.0589
  633UNK    F00 5689  26.506   1.287  11.352 -0.1252 -0.5435 -0.2235
  633UNK    C01 5690  26.438   1.211  11.433 -0.3551  0.0437  0.2016
  633UNK    H02 5691  26.340   1.249  11.461 -0.4355 -0.3860  0.5172
  633UNK    C03 5692  26.482   1.086  11.463  0.0742 -0.3810 -0.0367
  633UNK    C04 5693  26.391   0.985  11.526 -0.9803  1.0279  0.6959
  633UNK    F05 5694  26.294   0.955  11.440  0.8683 -0.4946  0.1098
  633UNK    F06 5695  26.464   0.875  11.539  0.6204 -0.1845 -0.5926
  633UNK    F07 5696  26.325   1.023  11.640  0.2336  0.3903 -0.4808
  633UNK    H08 5697  26.585   1.059  11.443  0.3265  1.1680 -0.9678
  634UNK    F00 5698  23.957   0.305   7.545 -0.5453 -0.2552  0.0108
  634UNK    C01 5699  23.923   0.384   7.644 -0.3207  0.2269 -0.4730
  634UNK    H02 5700  23.894   0.485   7.615  1.0909  0.8498  0.2906
  634UNK    C03 5701  23.884   0.316   7.752 -0.1055 -0.3032 -0.2416
  634UNK    C04 5702  23.821   0.375   7.873  0.3587  0.3685  0.2848
  634UNK    F05 5703  23.794   0.281   7.966  0.7357 -0.1775  0.2480
  634UNK    F06 5704  23.895   0.476   7.931 -0.3156 -0.1558 -0.5580
  634UNK    F07 5705  23.705   0.440   7.836  0.0122 -0.2691 -0.0472
  634UNK    H08 5706  23.855   0.214   7.735 -2.1587 -0.1169  1.9555
  635UNK    F00 5707  27.178   4.753   7.703  0.4632  0.1341 -0.4976
  635UNK    C01 5708  27.240   4.768   7.817  0.3192 -0.6921 -0.1653
  635UNK    H02 5709  27.258   4.875   7.835  0.2920 -0.8076  0.5929
  635UNK    C03 5710  27.283   4.661   7.878 -0.0509 -0.2091  0.0369
  635UNK    C04 5711  27.339   4.666   8.015  0.2784  0.2114  0.3617
  635UNK    F05 5712  27.383   4.541   8.042  0.2767 -0.3196 -0.0910
  635UNK    F06 5713  27.448   4.748   8.034  0.1936  0.2796 -0.0697
  635UNK    F07 5714  27.242   4.685   8.110  0.3948  0.0299  0.1964
  635UNK    H08 5715  27.232   4.570   7.853  1.6144 -1.8485  2.3984
  636UNK    F00 5716  26.631   3.857   8.012 -0.1868 -0.4605  0.2768
  636UNK    C01 5717  26.604   3.832   7.883 -0.1907 -1.0042  0.5997
  636UNK    H02 5718  26.680   3.883   7.824 -1.2862 -2.1181 -1.8366
  636UNK    C03 5719  26.480   3.838   7.836 -0.3762  0.5508  0.0545
  636UNK    C04 5720  26.414   3.969   7.816  0.2148 -0.3054 -0.0321
  636UNK    F05 5721  26.472   4.035   7.716  0.1121 -0.5083 -0.2480
  636UNK    F06 5722  26.286   3.949   7.767  0.0157  0.4333  0.5528
  636UNK    F07 5723  26.415   4.057   7.922  0.2074 -0.0190  0.1765
  636UNK    H08 5724  26.435   3.751   7.791 -0.0405 -0.4073  1.5204
  637UNK    F00 5725  27.288   1.033   8.154 -0.5832 -0.1062  0.1702
  637UNK    C01 5726  27.406   1.034   8.213  0.3172 -0.4061 -0.5451
  637UNK    H02 5727  27.485   1.031   8.139  0.7992  0.5102 -0.0827
  637UNK    C03 5728  27.420   0.967   8.324 -0.7402 -0.0383 -0.2745
  637UNK    C04 5729  27.521   0.997   8.422 -0.4082  0.6877 -0.1066
  637UNK    F05 5730  27.480   1.095   8.498  0.4177 -0.1433  0.0369
  637UNK    F06 5731  27.561   0.895   8.497 -0.0012  0.2124  0.1211
  637UNK    F07 5732  27.637   1.049   8.359  0.0639 -0.1744  0.1424
  637UNK    H08 5733  27.378   0.870   8.344  1.5986 -0.9448  0.4021
  638UNK    F00 5734  27.874   4.731  10.050 -0.2373 -0.7100  0.1887
  638UNK    C01 5735  27.820   4.632   9.968  0.0468 -0.2280  0.6813
  638UNK    H02 5736  27.711   4.628   9.970  0.0622  0.0054  3.6650
  638UNK    C03 5737  27.895   4.538   9.908  0.2760 -0.4564 -0.3390
  638UNK    C04 5738  27.838   4.448   9.810  0.2091  0.2351 -0.1237
  638UNK    F05 5739  27.727   4.398   9.863  0.2102  0.0870  0.1229
  638UNK    F06 5740  27.816   4.499   9.686  0.1038 -0.0520 -0.4642
  638UNK    F07 5741  27.910   4.334   9.787  0.1892 -0.6492 -0.3373
  638UNK    H08 5742  27.990   4.507   9.950 -1.6864 -2.4103  2.7530
  639UNK    F00 5743  24.593   3.983   6.492 -0.2781  0.0734 -0.2333
  639UNK    C01 5744  24.704   4.049   6.466  0.5499 -0.6342  0.0997
  639UNK    H02 5745  24.757   3.994   6.388  0.3620  0.8346 -1.0710
  639UNK    C03 5746  24.761   4.120   6.561  0.1200 -0.0489  0.3180
  639UNK    C04 5747  24.892   4.192   6.552  0.4931  1.0595 -0.5462
  639UNK    F05 5748  24.880   4.295   6.468 -0.3677  0.5534 -0.3511
  639UNK    F06 5749  24.919   4.245   6.672 -0.1046  0.3720  0.1043
  639UNK    F07 5750  24.993   4.110   6.521  0.4044  0.4346 -0.3794
  639UNK    H08 5751  24.711   4.112   6.656 -1.4445  1.1188 -0.3899
  640UNK    F00 5752  23.972   4.383   5.361 -0.1965 -0.0764  0.3465
  640UNK    C01 5753  24.071   4.439   5.433  0.0754  0.0417 -0.2923
  640UNK    H02 5754  24.026   4.526   5.482 -0.6174 -0.7368  0.4841
  640UNK    C03 5755  24.169   4.368   5.471 -0.0032  0.4375 -1.1733
  640UNK    C04 5756  24.252   4.411   5.588 -0.7849  0.5851  0.1588
  640UNK    F05 5757  24.281   4.541   5.577 -0.0973  0.1555  0.1733
  640UNK    F06 5758  24.185   4.391   5.705 -0.4028 -0.1247  0.2811
  640UNK    F07 5759  24.366   4.341   5.607 -0.5859 -0.4114  0.1286
  640UNK    H08 5760  24.226   4.330   5.388  0.5004  0.7537 -0.9721
  641UNK    F00 5761  26.834   0.448   8.128 -0.1405 -0.7070  0.2464
  641UNK    C01 5762  26.785   0.374   8.026  0.4755  0.1004  0.1226
  641UNK    H02 5763  26.724   0.436   7.960 -0.3299  0.6158  1.3366
  641UNK    C03 5764  26.808   0.245   8.020 -0.1646 -0.1123 -0.1052
  641UNK    C04 5765  26.740   0.146   8.105  0.1508  0.3908  0.1975
  641UNK    F05 5766  26.627   0.094   8.047  0.1981 -0.0321 -0.1218
  641UNK    F06 5767  26.822   0.042   8.093  0.9361 -0.2869  0.1064
  641UNK    F07 5768  26.711   0.163   8.240 -0.6182 -0.4500  0.2828
  641UNK    H08 5769  26.833   0.192   7.929  1.1163  0.6281 -0.1863
  642UNK    F00 5770  28.315   3.643   4.839 -0.0688 -0.0092 -0.7517
  642UNK    C01 5771  28.402   3.574   4.914 -0.1686  0.2562 -0.4622
  642UNK    H02 5772  28.375   3.471   4.932  2.0491 -0.3497 -0.4391
  642UNK    C03 5773  28.520   3.623   4.961  0.3977  0.4343  0.0263
  642UNK    C04 5774  28.518   3.705   5.083 -0.1768  0.0997  0.0519
  642UNK    F05 5775  28.637   3.764   5.105  0.1391 -0.3638 -0.2324
  642UNK    F06 5776  28.424   3.805   5.080  0.0231  0.2788 -0.0693
  642UNK    F07 5777  28.479   3.621   5.180  0.1820 -0.0142  0.4107
  642UNK    H08 5778  28.612   3.567   4.956  1.4869  2.0571  1.2590
  643UNK    F00 5779  23.437   4.651   6.168 -0.6540  0.0537  0.7319
  643UNK    C01 5780  23.430   4.564   6.071 -0.2249  0.2996 -0.4386
  643UNK    H02 5781  23.480   4.471   6.097  0.3254 -0.2935 -3.4422
  643UNK    C03 5782  23.422   4.611   5.941  0.3322  0.2770 -1.1360
  643UNK    C04 5783  23.372   4.547   5.822  0.4370 -0.1574  0.1951
  643UNK    F05 5784  23.412   4.615   5.710  0.2310 -0.3513 -0.1342
  643UNK    F06 5785  23.422   4.419   5.813  0.0250 -0.4214 -0.1187
  643UNK    F07 5786  23.237   4.548   5.835  0.3122 -0.5218 -0.0170
  643UNK    H08 5787  23.466   4.704   5.908 -1.5088  1.0439 -1.4891
  644UNK    F00 5788  29.742   0.463   7.498 -0.0413  0.3447 -0.2151
  644UNK    C01 5789  29.785   0.407   7.607  0.6368  0.0564 -0.4387
  644UNK    H02 5790  29.754   0.465   7.693 -0.1637 -0.2399 -0.5215
  644UNK    C03 5791  29.811   0.273   7.604 -0.0438 -0.0840  0.8556
  644UNK    C04 5792  29.929   0.212   7.532 -0.1453 -0.6121 -1.0851
  644UNK    F05 5793  29.946   0.079   7.563  0.5516 -0.0292 -0.3721
  644UNK    F06 5794  29.929   0.218   7.400  0.1259 -0.2053 -0.0539
  644UNK    F07 5795  30.033   0.282   7.580 -0.3770  0.3029 -0.0857
  644UNK    H08 5796  29.727   0.210   7.578  0.1263  0.6888 -1.6042
  645UNK    F00 5797  27.058   4.464   7.774 -0.0069 -0.0272  0.0477
  645UNK    C01 5798  27.029   4.344   7.717 -0.2887  0.5290 -0.1738
  645UNK    H02 5799  27.105   4.270   7.743 -1.4026 -1.2117 -1.7275
  645UNK    C03 5800  26.910   4.320   7.665  0.2558  0.8366 -0.8303
  645UNK    C04 5801  26.843   4.189   7.677 -1.1095  0.2788  0.4744
  645UNK    F05 5802  26.827   4.150   7.804  0.3291 -0.7939 -0.0676
  645UNK    F06 5803  26.724   4.183   7.615 -0.8240 -0.1804 -0.0786
  645UNK    F07 5804  26.911   4.093   7.611  0.2866 -0.3875 -0.6382
  645UNK    H08 5805  26.830   4.391   7.648 -0.2164 -0.0745 -2.5046
  646UNK    F00 5806  26.068   3.652   6.463 -0.3837  0.4441  0.0610
  646UNK    C01 5807  26.155   3.701   6.380 -0.9684 -0.8352  0.3366
  646UNK    H02 5808  26.166   3.806   6.407 -2.4343 -1.2353  2.6748
  646UNK    C03 5809  26.214   3.610   6.300  0.0838  0.4257  0.3207
  646UNK    C04 5810  26.356   3.611   6.253  0.0013 -0.0880 -0.2312
  646UNK    F05 5811  26.369   3.722   6.183  0.5179 -0.0847  0.1261
  646UNK    F06 5812  26.436   3.643   6.357 -0.4296 -0.4784 -0.5473
  646UNK    F07 5813  26.391   3.501   6.181  0.1066  0.1560  0.0484
  646UNK    H08 5814  26.181   3.508   6.307 -0.9709  0.9189  3.1526
  647UNK    F00 5815  28.101   3.541   7.210  0.2463 -0.8774  0.0811
  647UNK    C01 5816  28.012   3.532   7.110  0.4562  0.3223 -0.1332
  647UNK    H02 5817  27.922   3.590   7.127  0.2651  0.6455 -2.1841
  647UNK    C03 5818  28.046   3.450   7.009 -0.7031 -0.8483 -0.4401
  647UNK    C04 5819  28.182   3.446   6.950 -0.5351 -0.5196  0.1598
  647UNK    F05 5820  28.276   3.394   7.039  0.4917  0.5480 -0.3688
  647UNK    F06 5821  28.185   3.357   6.844 -0.0804  0.1976 -0.1943
  647UNK    F07 5822  28.215   3.568   6.904  0.4907 -0.0359  0.0409
  647UNK    H08 5823  28.015   3.346   7.018 -1.2637 -0.5910  0.8685
  648UNK    F00 5824  27.846   3.579   8.682  0.3996 -0.2074  0.1392
  648UNK    C01 5825  27.747   3.493   8.651 -0.6663 -0.1964  0.0967
  648UNK    H02 5826  27.667   3.545   8.598  0.4927  1.5257 -0.0106
  648UNK    C03 5827  27.745   3.377   8.720 -0.1573  0.9974 -0.4400
  648UNK    C04 5828  27.645   3.271   8.714  0.3013  0.4754  0.3954
  648UNK    F05 5829  27.658   3.210   8.830 -0.1193 -0.0726  0.8666
  648UNK    F06 5830  27.517   3.329   8.698  0.2703  0.3280 -0.0960
  648UNK    F07 5831  27.655   3.187   8.609  0.4476  0.8415 -0.3369
  648UNK    H08 5832  27.833   3.342   8.771 -1.7080 -2.4268  0.0332
  649UNK    F00 5833  23.805   3.352   8.316 -0.2448  0.5128 -0.1509
  649UNK    C01 5834  23.911   3.375   8.241 -0.0319  1.0269 -0.0238
  649UNK    H02 5835  23.882   3.410   8.142  0.4693  0.7470 -0.2739
  649UNK    C03 5836  24.029   3.327   8.279  0.1258 -0.0450 -0.4734
  649UNK    C04 5837  24.075   3.191   8.262  0.0548  0.3185  0.0039
  649UNK    F05 5838  24.062   3.108   8.370 -0.2588  0.5976 -0.4623
  649UNK    F06 5839  24.025   3.126   8.155 -0.2642 -0.3069  0.3634
  649UNK    F07 5840  24.206   3.184   8.248 -0.5555 -0.0262  0.1182
  649UNK    H08 5841  24.089   3.381   8.350  0.0272  1.0335 -1.1945
  650UNK    F00 5842  28.705   3.468   6.418  0.2123  0.1092 -0.1033
  650UNK    C01 5843  28.809   3.384   6.403 -0.4498  0.5600 -0.1565
  650UNK    H02 5844  28.762   3.294   6.362 -1.0786  0.0039  1.7207
  650UNK    C03 5845  28.914   3.435   6.341 -0.5703  0.1125  0.3982
  650UNK    C04 5846  28.997   3.352   6.246 -1.5063 -0.0014  0.6383
  650UNK    F05 5847  28.912   3.301   6.163 -0.3322 -0.3253  0.1423
  650UNK    F06 5848  29.092   3.411   6.165  0.1101 -0.0012  0.3653
  650UNK    F07 5849  29.067   3.258   6.307 -0.3507  0.4553  0.4695
  650UNK    H08 5850  28.937   3.538   6.363  2.2814 -0.5013  0.4519
  651UNK    F00 5851  27.576   0.515   9.615  0.4075 -0.2372  0.0518
  651UNK    C01 5852  27.655   0.615   9.579  0.1484  0.0748 -0.1487
  651UNK    H02 5853  27.669   0.622   9.471  1.0266 -1.5895 -0.1503
  651UNK    C03 5854  27.732   0.676   9.670 -0.6854 -0.3467 -0.7851
  651UNK    C04 5855  27.791   0.808   9.649 -0.4373  0.2434  0.2515
  651UNK    F05 5856  27.920   0.813   9.694 -0.4430 -0.6264  0.0294
  651UNK    F06 5857  27.805   0.847   9.520  0.0179  0.0472  0.5111
  651UNK    F07 5858  27.732   0.895   9.729 -0.2890  0.0422 -0.1821
  651UNK    H08 5859  27.748   0.633   9.768  1.8897  0.7058 -0.7126
  652UNK    F00 5860  24.174   3.817   9.392 -0.2803 -0.1558 -0.1608
  652UNK    C01 5861  24.043   3.791   9.362 -0.6676 -0.3980 -0.4829
  652UNK    H02 5862  23.995   3.861   9.293 -0.0215  1.2976  0.7345
  652UNK    C03 5863  23.984   3.680   9.414  0.3742  0.0037  0.0579
  652UNK    C04 5864  23.842   3.658   9.412  0.2182 -0.7712  0.4947
  652UNK    F05 5865  23.777   3.764   9.458 -0.0653 -0.1501  0.0001
  652UNK    F06 5866  23.798   3.625   9.286 -0.1786  0.4412 -0.0852
  652UNK    F07 5867  23.823   3.546   9.493 -0.4525 -0.2927 -0.6970
  652UNK    H08 5868  24.019   3.652   9.512  2.4495  2.2858  0.0086
  653UNK    F00 5869  26.112   0.899   4.774  0.0676  0.5818  0.3197
  653UNK    C01 5870  26.016   0.821   4.725  0.5551  0.4865 -0.1387
  653UNK    H02 5871  25.921   0.864   4.756  0.4704 -1.1177  1.9627
  653UNK    C03 5872  26.047   0.696   4.711 -0.5359  0.1659 -0.0455
  653UNK    C04 5873  25.954   0.599   4.655 -0.6090  0.7449 -0.7077
  653UNK    F05 5874  26.026   0.485   4.631  0.0933  0.2153 -0.4941
  653UNK    F06 5875  25.850   0.562   4.733  0.0395  0.2733 -0.1661
  653UNK    F07 5876  25.899   0.645   4.537 -0.0310  0.7139 -0.1162
  653UNK    H08 5877  26.107   0.653   4.790 -1.1197 -0.8497 -0.1478
  654UNK    F00 5878  28.214   0.584   7.797 -0.3005 -0.0023 -0.0584
  654UNK    C01 5879  28.233   0.712   7.834  0.3671 -0.3389 -0.3520
  654UNK    H02 5880  28.227   0.772   7.743 -0.7129  0.2906  0.1316
  654UNK    C03 5881  28.284   0.733   7.951 -0.5830  0.2479  0.5632
  654UNK    C04 5882  28.403   0.678   8.014  0.6292  0.0045  0.1641
  654UNK    F05 5883  28.516   0.725   7.964  0.0243 -0.3077 -0.1972
  654UNK    F06 5884  28.418   0.702   8.146  0.0881 -0.5036 -0.1604
  654UNK    F07 5885  28.403   0.544   7.997  0.1248  0.1255 -0.5365
  654UNK    H08 5886  28.230   0.812   8.002 -3.3433  0.0609 -1.9480
  655UNK    F00 5887  25.512   0.471   9.911  0.5737 -0.1325 -0.5128
  655UNK    C01 5888  25.428   0.496   9.808  0.5653  0.0704  0.0331
  655UNK    H02 5889  25.448   0.443   9.715 -0.8828 -1.9060  0.7927
  655UNK    C03 5890  25.348   0.603   9.814 -0.0723  0.2724 -0.7504
  655UNK    C04 5891  25.227   0.624   9.730  0.3991 -0.1019 -0.2309
  655UNK    F05 5892  25.245   0.623   9.594  0.0373  0.2005  0.7595
  655UNK    F06 5893  25.158   0.516   9.766  0.6126 -0.1249 -0.1450
  655UNK    F07 5894  25.146   0.732   9.750 -0.7590 -0.1875  0.1423
  655UNK    H08 5895  25.343   0.660   9.906  1.1814 -0.5880 -0.1316
  656UNK    F00 5896  28.539   1.119   7.999  0.4784  0.2942 -0.0487
  656UNK    C01 5897  28.483   1.246   7.998  0.0062  0.1406 -0.6781
  656UNK    H02 5898  28.515   1.307   8.082 -1.9351  0.0093  0.1777
  656UNK    C03 5899  28.410   1.293   7.898 -0.2226  0.0440 -0.7401
  656UNK    C04 5900  28.284   1.225   7.854 -1.0368  0.1796 -0.3350
  656UNK    F05 5901  28.179   1.246   7.932  0.0485 -0.0526 -0.0219
  656UNK    F06 5902  28.252   1.279   7.735 -0.5743 -0.4973  0.1121
  656UNK    F07 5903  28.301   1.089   7.822 -0.1126  0.1479  0.1956
  656UNK    H08 5904  28.411   1.401   7.893  0.4839  0.0264 -1.0900
  657UNK    F00 5905  25.212   3.346   9.579 -0.3080  0.6358 -0.3871
  657UNK    C01 5906  25.185   3.424   9.687 -0.1439 -0.3035 -0.2093
  657UNK    H02 5907  25.081   3.405   9.714 -0.4345  0.9519 -0.4029
  657UNK    C03 5908  25.279   3.442   9.778 -0.0632  0.3061  0.6673
  657UNK    C04 5909  25.260   3.464   9.920  0.3175  0.6928  0.3533
  657UNK    F05 5910  25.374   3.515   9.967  0.0680  0.5017 -0.6777
  657UNK    F06 5911  25.159   3.548   9.945 -0.1774 -0.4136 -0.1281
  657UNK    F07 5912  25.232   3.345   9.987 -0.3980 -0.4349 -0.8032
  657UNK    H08 5913  25.379   3.467   9.744  0.3883 -0.8596  1.1237
  658UNK    F00 5914  27.816   0.406   7.744  0.1279  0.9120  0.6895
  658UNK    C01 5915  27.847   0.402   7.613 -0.5246 -0.0505  0.0798
  658UNK    H02 5916  27.953   0.377   7.605  0.4076  1.9206  4.7842
  658UNK    C03 5917  27.753   0.351   7.532 -0.4319  0.1486 -0.0800
  658UNK    C04 5918  27.613   0.398   7.523 -0.2238  0.2270 -0.4833
  658UNK    F05 5919  27.541   0.306   7.588 -0.1708  0.3686  0.3473
  658UNK    F06 5920  27.582   0.521   7.580 -0.0714  0.1333 -0.0337
  658UNK    F07 5921  27.581   0.403   7.391 -0.2606  0.5148  0.1635
  658UNK    H08 5922  27.768   0.252   7.492 -0.0586 -0.7213  2.1465
  659UNK    F00 5923  28.031   3.935  10.582 -0.2647  0.2565 -0.6645
  659UNK    C01 5924  27.995   4.061  10.586 -0.0418 -0.0644 -0.1819
  659UNK    H02 5925  27.888   4.069  10.566  0.3294 -0.1311 -2.2786
  659UNK    C03 5926  28.087   4.157  10.605  0.0472  0.7683 -1.3721
  659UNK    C04 5927  28.076   4.299  10.608 -1.0495 -0.0277  0.4653
  659UNK    F05 5928  28.203   4.351  10.604 -0.1649  0.2722  0.1398
  659UNK    F06 5929  28.012   4.343  10.494 -0.3572  0.5111  0.4329
  659UNK    F07 5930  28.003   4.325  10.712  0.7412  0.1732 -0.1766
  659UNK    H08 5931  28.189   4.129  10.587  0.1918  1.8210 -2.2290
  660UNK    F00 5932  29.403   1.750   9.839  0.3520  0.3832 -0.3124
  660UNK    C01 5933  29.298   1.768   9.759 -0.2553 -0.5522 -0.4919
  660UNK    H02 5934  29.214   1.704   9.785  0.9291 -1.3138  1.6276
  660UNK    C03 5935  29.284   1.879   9.688 -0.7039  0.6646 -0.7289
  660UNK    C04 5936  29.154   1.943   9.653 -0.1434  0.0997  1.0714
  660UNK    F05 5937  29.147   2.012   9.537 -0.2622  0.2331  0.1307
  660UNK    F06 5938  29.056   1.849   9.661 -0.0807 -0.1614  0.3831
  660UNK    F07 5939  29.132   2.036   9.750  0.3598 -0.1060  0.1405
  660UNK    H08 5940  29.376   1.914   9.643  1.8010 -1.5624  2.5011
  661UNK    F00 5941  24.419   3.520  10.093 -0.2393  0.2640 -0.0995
  661UNK    C01 5942  24.314   3.597  10.073  0.2612 -0.2962  0.2300
  661UNK    H02 5943  24.310   3.681  10.143  1.6182  0.9935 -1.2113
  661UNK    C03 5944  24.224   3.573   9.979  0.1288 -0.2582 -0.0288
  661UNK    C04 5945  24.144   3.676   9.903 -0.0157  0.0125  0.3842
  661UNK    F05 5946  24.059   3.612   9.825 -0.4495  0.1580 -0.2307
  661UNK    F06 5947  24.071   3.745   9.995 -0.2002  0.5403  0.1861
  661UNK    F07 5948  24.211   3.769   9.828 -0.6005 -0.3669 -0.3057
  661UNK    H08 5949  24.258   3.487   9.924 -1.2311 -1.4153  0.8735
  662UNK    F00 5950  26.715   0.829  10.749 -0.1914 -0.3201 -0.1553
  662UNK    C01 5951  26.603   0.852  10.682 -0.4268 -0.2775  1.0299
  662UNK    H02 5952  26.593   0.789  10.594  1.2920  1.0347 -0.1541
  662UNK    C03 5953  26.518   0.942  10.728 -0.3915 -0.3288 -0.5446
  662UNK    C04 5954  26.374   0.952  10.691 -0.6476 -0.1548  0.5534
  662UNK    F05 5955  26.360   0.953  10.559 -0.4125  0.2637  0.1859
  662UNK    F06 5956  26.301   0.842  10.724  0.6670 -0.2114  0.0679
  662UNK    F07 5957  26.310   1.059  10.743 -0.3092  0.0522 -0.1509
  662UNK    H08 5958  26.557   1.039  10.755 -1.7897  1.0139 -3.2400
  663UNK    F00 5959  25.212   0.641   6.609  0.1227  0.1690  0.0590
  663UNK    C01 5960  25.311   0.609   6.521  0.0333  0.0490  0.3329
  663UNK    H02 5961  25.393   0.678   6.537 -0.3535  0.0247  2.6605
  663UNK    C03 5962  25.291   0.522   6.423 -1.0210  0.8414  0.3524
  663UNK    C04 5963  25.199   0.408   6.435  0.1648 -0.1755 -0.5425
  663UNK    F05 5964  25.195   0.338   6.325 -0.6209  0.2391 -0.0067
  663UNK    F06 5965  25.235   0.323   6.533 -0.3279 -0.5893  0.5104
  663UNK    F07 5966  25.069   0.439   6.462 -0.0127 -0.3663 -0.0789
  663UNK    H08 5967  25.337   0.541   6.327 -2.3157  0.0479 -0.4424
  664UNK    F00 5968  25.711   4.557   7.261 -0.2692  0.0674  0.1436
  664UNK    C01 5969  25.669   4.589   7.141  0.0733 -0.0498  0.4024
  664UNK    H02 5970  25.561   4.584   7.122  0.3187  0.4710 -1.1177
  664UNK    C03 5971  25.756   4.640   7.057 -0.1726  0.4382  0.2818
  664UNK    C04 5972  25.705   4.686   6.930  0.3674  0.3165 -0.3826
  664UNK    F05 5973  25.623   4.789   6.950  0.3200 -0.3303  0.0482
  664UNK    F06 5974  25.806   4.727   6.848  0.2378  0.1165  0.2062
  664UNK    F07 5975  25.639   4.579   6.875  0.2854  0.4597 -0.5127
  664UNK    H08 5976  25.858   4.667   7.079  0.3675  0.4974 -2.0735
  665UNK    F00 5977  24.812   3.917   5.928  0.0568  0.4649  0.4951
  665UNK    C01 5978  24.816   3.790   5.884 -0.1217  0.2284 -0.3283
  665UNK    H02 5979  24.734   3.775   5.814 -1.7130  2.9920  0.8522
  665UNK    C03 5980  24.903   3.708   5.942  0.1818 -0.6175  0.1065
  665UNK    C04 5981  24.856   3.612   6.038  0.4616  0.2189 -0.3067
  665UNK    F05 5982  24.841   3.653   6.166  0.0856 -0.2707  0.3603
  665UNK    F06 5983  24.734   3.560   5.998  0.4102  0.3061  0.3327
  665UNK    F07 5984  24.918   3.489   6.041  0.0715 -0.2526 -0.2547
  665UNK    H08 5985  25.003   3.691   5.905  0.1250 -0.7419  0.0068
  666UNK    F00 5986  25.959   3.051   6.962 -0.6124 -0.1251  0.2479
  666UNK    C01 5987  25.933   3.124   6.850  0.3535  0.4404 -1.0263
  666UNK    H02 5988  26.024   3.156   6.798  0.1498 -0.8860 -2.2170
  666UNK    C03 5989  25.831   3.200   6.883 -0.5985 -0.1267 -0.9333
  666UNK    C04 5990  25.755   3.274   6.776 -0.7998 -0.5248  0.7304
  666UNK    F05 5991  25.697   3.380   6.832  0.1323  0.0773  0.3187
  666UNK    F06 5992  25.845   3.325   6.688 -0.4843 -0.0888 -0.3021
  666UNK    F07 5993  25.655   3.197   6.716 -0.2442 -0.1208  0.2361
  666UNK    H08 5994  25.781   3.193   6.978 -0.4679 -1.0507 -0.9204
  667UNK    F00 5995  25.468   2.009   9.365  0.3498  0.0925  0.0667
  667UNK    C01 5996  25.478   1.878   9.369  0.4187 -0.4161  0.3201
  667UNK    H02 5997  25.394   1.844   9.429  1.6452 -0.5240  2.0176
  667UNK    C03 5998  25.599   1.827   9.364 -0.8483  0.5823 -0.2394
  667UNK    C04 5999  25.630   1.683   9.337 -0.0094 -0.2579  0.7194
  667UNK    F05 6000  25.755   1.666   9.393  0.1261 -0.0445  0.3455
  667UNK    F06 6001  25.550   1.610   9.415 -0.6218  0.1009 -0.2285
  667UNK    F07 6002  25.627   1.643   9.208 -0.1394 -0.2411  0.2766
  667UNK    H08 6003  25.678   1.898   9.345 -1.3735  1.5706  1.1438
  668UNK    F00 6004  27.208   4.483   7.071 -0.2321 -0.3923 -0.0606
  668UNK    C01 6005  27.331   4.504   7.125 -0.4693  0.1100  0.8441
  668UNK    H02 6006  27.374   4.599   7.092 -0.8153 -0.2717 -0.7609
  668UNK    C03 6007  27.385   4.411   7.207  0.3456  0.7270  0.2029
  668UNK    C04 6008  27.454   4.290   7.160 -0.0049  0.2098  0.1878
  668UNK    F05 6009  27.382   4.231   7.065  0.3557 -0.6475  0.0344
  668UNK    F06 6010  27.572   4.330   7.100 -0.0201  0.0247 -0.3127
  668UNK    F07 6011  27.473   4.212   7.270 -0.2296  0.0604  0.4195
  668UNK    H08 6012  27.413   4.424   7.310  3.4830 -0.0264 -0.4794
  669UNK    F00 6013  27.692   0.056   8.771 -0.1940  0.1594 -0.0954
  669UNK    C01 6014  27.677   0.066   8.632 -0.3164  0.2725 -0.0492
  669UNK    H02 6015  27.605  -0.002   8.586  0.4530 -0.3966 -0.2698
  669UNK    C03 6016  27.749   0.160   8.571  0.3193  0.5688  0.4258
  669UNK    C04 6017  27.710   0.234   8.455 -0.2576 -0.0720  0.6014
  669UNK    F05 6018  27.620   0.324   8.482  0.0712 -0.6004  0.1407
  669UNK    F06 6019  27.817   0.299   8.392 -0.7068  0.5620 -0.2941
  669UNK    F07 6020  27.652   0.146   8.365 -0.2807  0.4080 -0.5141
  669UNK    H08 6021  27.856   0.161   8.581  0.5657 -1.5238 -1.6948
  670UNK    F00 6022  29.911   2.289   8.619 -0.0878  0.4459  0.1791
  670UNK    C01 6023  29.954   2.353   8.509  0.2251  0.4744 -0.3377
  670UNK    H02 6024  29.882   2.432   8.487 -0.8337 -0.4286 -0.1081
  670UNK    C03 6025  30.013   2.288   8.408 -0.0378 -0.0042 -0.1000
  670UNK    C04 6026  30.119   2.348   8.327 -0.1192 -1.4906 -0.1962
  670UNK    F05 6027  30.081   2.471   8.295 -0.5565 -0.1541  0.4102
  670UNK    F06 6028  30.236   2.363   8.391  0.0201 -0.1262  0.1747
  670UNK    F07 6029  30.138   2.281   8.209  0.2910  0.1060 -0.6961
  670UNK    H08 6030  30.008   2.181   8.396 -1.0208  0.0252 -0.0110
  671UNK    F00 6031  25.928   2.247   4.891 -0.0190  0.4291  0.1784
  671UNK    C01 6032  25.848   2.283   4.989 -0.6256  0.0337 -0.0071
  671UNK    H02 6033  25.762   2.333   4.944 -0.9302 -1.3479 -0.9587
  671UNK    C03 6034  25.879   2.266   5.117  0.4034  0.0793  0.2028
  671UNK    C04 6035  25.780   2.285   5.224 -0.2780 -0.0180  0.0886
  671UNK    F05 6036  25.837   2.314   5.342  0.1055  0.1757  0.0507
  671UNK    F06 6037  25.684   2.378   5.210 -0.4708  0.5564 -0.2777
  671UNK    F07 6038  25.710   2.169   5.238 -0.3892  0.2967  0.1601
  671UNK    H08 6039  25.958   2.195   5.136 -0.0823 -0.8418 -1.0972
  672UNK    F00 6040  28.362   1.735   8.829 -0.7806  0.0431 -0.0484
  672UNK    C01 6041  28.493   1.733   8.833  0.2294  0.1334  0.4798
  672UNK    H02 6042  28.541   1.656   8.773  1.3169 -1.0720  2.8158
  672UNK    C03 6043  28.555   1.816   8.922 -0.1331  0.9238 -0.4914
  672UNK    C04 6044  28.701   1.848   8.921  0.0691  0.0328 -0.2086
  672UNK    F05 6045  28.784   1.743   8.935 -0.5510  0.2834 -0.1091
  672UNK    F06 6046  28.739   1.914   8.811  0.1332 -0.6337 -1.0484
  672UNK    F07 6047  28.737   1.934   9.014  0.0682 -0.4402 -0.0791
  672UNK    H08 6048  28.497   1.875   8.991 -1.4511  0.0614 -0.8384
  673UNK    F00 6049  26.881   2.657   8.692  0.6651 -0.5638  0.1883
  673UNK    C01 6050  26.869   2.779   8.738 -0.0521  0.9203  0.0649
  673UNK    H02 6051  26.782   2.822   8.689  0.0174  1.4774  0.4313
  673UNK    C03 6052  26.950   2.817   8.835  0.0200 -0.3400 -0.3360
  673UNK    C04 6053  26.939   2.945   8.910 -0.1742  0.3090  0.0175
  673UNK    F05 6054  26.831   2.939   8.987 -0.4481  0.0882 -0.3659
  673UNK    F06 6055  27.055   2.986   8.964  0.3929  0.5270  0.4306
  673UNK    F07 6056  26.914   3.033   8.809 -0.0851 -0.0211  0.4499
  673UNK    H08 6057  27.015   2.744   8.881  2.0883  2.0933  0.6966
  674UNK    F00 6058  29.035   0.694   5.543 -0.0113 -0.0387 -0.0507
  674UNK    C01 6059  28.936   0.630   5.483  0.4576 -0.0452 -0.3407
  674UNK    H02 6060  28.950   0.625   5.375 -0.6376 -2.8962 -0.3852
  674UNK    C03 6061  28.841   0.581   5.558 -0.3947 -0.3736  0.1468
  674UNK    C04 6062  28.856   0.529   5.697  0.1892 -0.0267  0.3588
  674UNK    F05 6063  28.735   0.469   5.718  0.0972 -0.4042 -0.3119
  674UNK    F06 6064  28.945   0.421   5.704  0.1234 -0.3812 -0.6801
  674UNK    F07 6065  28.883   0.621   5.793 -0.1696 -0.8655 -0.3779
  674UNK    H08 6066  28.736   0.584   5.533 -0.4936  0.0425  0.6290
  675UNK    F00 6067  24.107   0.710   6.418  0.1688 -0.4957 -0.3506
  675UNK    C01 6068  24.095   0.824   6.346  0.1199  0.2291  0.5155
  675UNK    H02 6069  24.025   0.819   6.263  0.8553  1.8627 -0.2209
  675UNK    C03 6070  24.189   0.918   6.367 -0.3553 -0.1048  0.3246
  675UNK    C04 6071  24.174   1.062   6.326  0.3614 -0.4644  0.8252
  675UNK    F05 6072  24.282   1.139   6.355  0.0529  0.0169 -0.6173
  675UNK    F06 6073  24.174   1.055   6.191 -0.2439 -0.1078  0.1310
  675UNK    F07 6074  24.056   1.117   6.364 -0.3436  0.2220  0.5349
  675UNK    H08 6075  24.263   0.909   6.445 -0.7088  2.9019  1.0759
  676UNK    F00 6076  24.919   3.518   7.798  0.3207 -0.1870  0.1122
  676UNK    C01 6077  24.986   3.472   7.909 -0.5182  0.1491 -0.3724
  676UNK    H02 6078  24.923   3.447   7.994 -0.5740  0.4300 -0.3305
  676UNK    C03 6079  25.114   3.499   7.901 -0.1250 -0.0739 -0.1379
  676UNK    C04 6080  25.171   3.620   7.961 -0.6375  0.0148  0.0982
  676UNK    F05 6081  25.187   3.592   8.092 -0.1635  0.6080  0.4586
  676UNK    F06 6082  25.299   3.634   7.913 -0.0205 -0.1071  0.1487
  676UNK    F07 6083  25.110   3.734   7.941  0.0829  0.0605  0.0880
  676UNK    H08 6084  25.185   3.455   7.833  0.9552  1.3879  0.0164
  677UNK    F00 6085  26.658   4.534   6.628  0.4968 -0.2060  0.4713
  677UNK    C01 6086  26.596   4.616   6.542 -0.0068  0.2117  0.2025
  677UNK    H02 6087  26.637   4.716   6.554  1.3943 -0.0420 -2.2084
  677UNK    C03 6088  26.566   4.572   6.416  0.6624  0.2117  0.0463
  677UNK    C04 6089  26.493   4.652   6.319 -0.4375  0.1238 -0.3096
  677UNK    F05 6090  26.584   4.741   6.269 -0.0751  0.0696  0.3169
  677UNK    F06 6091  26.452   4.579   6.212  0.2494 -0.4651 -0.5575
  677UNK    F07 6092  26.387   4.725   6.372  0.0508  0.1037  0.0504
  677UNK    H08 6093  26.599   4.476   6.381  0.2121 -0.0611  0.3775
  678UNK    F00 6094  23.965   0.927   5.690 -0.0898  0.0803 -0.1977
  678UNK    C01 6095  23.931   0.899   5.813  0.4289 -0.3689 -0.7265
  678UNK    H02 6096  24.001   0.831   5.862  2.1722  1.7578 -0.1572
  678UNK    C03 6097  23.815   0.951   5.852  0.2457 -0.4739 -0.2150
  678UNK    C04 6098  23.759   0.929   5.984  0.2469 -0.1906 -0.0666
  678UNK    F05 6099  23.814   1.011   6.077 -0.1955 -0.1382 -0.2503
  678UNK    F06 6100  23.622   0.935   5.993 -0.0699 -0.0411  0.8322
  678UNK    F07 6101  23.771   0.805   6.034 -0.0143 -0.0143 -0.1916
  678UNK    H08 6102  23.744   0.978   5.775 -1.2117 -1.4113  0.7881
  679UNK    F00 6103  27.142   3.349   6.154  0.3894  0.4730 -0.3911
  679UNK    C01 6104  27.194   3.268   6.057 -0.2954 -0.8722  0.3140
  679UNK    H02 6105  27.224   3.324   5.969 -2.6240 -0.8783 -0.5063
  679UNK    C03 6106  27.154   3.142   6.056  0.4465 -0.2234  0.2258
  679UNK    C04 6107  27.242   3.042   6.000 -0.4163  0.4736 -0.3482
  679UNK    F05 6108  27.336   3.009   6.087 -0.0526  0.5936  0.2180
  679UNK    F06 6109  27.172   2.928   5.967 -0.3850 -0.6681 -0.2271
  679UNK    F07 6110  27.300   3.083   5.885  0.3170  0.1912 -0.1404
  679UNK    H08 6111  27.100   3.103   6.141 -0.5109 -0.8033 -0.6319
  680UNK    F00 6112  27.017   2.478   4.827 -0.1547  0.8300  0.3308
  680UNK    C01 6113  26.897   2.421   4.803 -0.0340 -0.4547  0.5879
  680UNK    H02 6114  26.880   2.384   4.702  1.8552 -1.0259  0.4628
  680UNK    C03 6115  26.808   2.457   4.893  1.0806 -0.5533  0.2750
  680UNK    C04 6116  26.686   2.375   4.918 -0.1430 -0.1910 -0.3915
  680UNK    F05 6117  26.645   2.289   4.824  0.1887  0.1549 -0.6303
  680UNK    F06 6118  26.685   2.306   5.036 -0.0425  0.1362 -0.3108
  680UNK    F07 6119  26.584   2.465   4.936 -0.3059  0.4523 -0.0731
  680UNK    H08 6120  26.811   2.560   4.924 -1.2888 -0.3070 -0.1976
  681UNK    F00 6121  26.947   2.042   6.834  0.1663 -0.3916  0.3715
  681UNK    C01 6122  27.072   2.025   6.879 -0.2605 -0.7634 -0.2672
  681UNK    H02 6123  27.114   2.121   6.911  1.2507 -0.8492 -1.9319
  681UNK    C03 6124  27.149   1.935   6.823  0.5017  0.5114 -0.2256
  681UNK    C04 6125  27.096   1.799   6.800  0.2563 -0.2112  1.0178
  681UNK    F05 6126  27.203   1.724   6.783 -0.2970  0.2089  0.1148
  681UNK    F06 6127  27.029   1.751   6.909  0.2634 -0.7808  0.1561
  681UNK    F07 6128  27.026   1.779   6.687 -0.1127  0.0230 -0.1373
  681UNK    H08 6129  27.256   1.933   6.837  0.2824 -0.6000  1.3974
  682UNK    F00 6130  25.257   3.427   9.269 -0.3600 -0.0315 -0.0750
  682UNK    C01 6131  25.258   3.474   9.140  0.5122 -0.2329  0.7147
  682UNK    H02 6132  25.171   3.540   9.129  0.9660  0.4231  1.0587
  682UNK    C03 6133  25.334   3.422   9.043 -0.1891 -1.1176 -0.5393
  682UNK    C04 6134  25.359   3.473   8.909 -0.2707  0.1006  0.9000
  682UNK    F05 6135  25.247   3.524   8.861  0.2712  0.1249  0.3000
  682UNK    F06 6136  25.447   3.576   8.932 -0.0163  0.3097 -0.2480
  682UNK    F07 6137  25.417   3.393   8.815 -0.4171  0.2301  0.0640
  682UNK    H08 6138  25.403   3.344   9.072  0.3027  0.0453  1.5290
  683UNK    F00 6139  25.883   1.943   5.881 -0.6880  0.2375 -0.0012
  683UNK    C01 6140  25.796   2.022   5.813  0.0780 -0.2388 -0.4912
  683UNK    H02 6141  25.804   2.008   5.705 -0.9980  0.0880 -0.6213
  683UNK    C03 6142  25.710   2.093   5.886  0.0966 -0.0061 -0.1624
  683UNK    C04 6143  25.639   2.022   5.993  0.4761 -0.6578  0.0900
  683UNK    F05 6144  25.718   2.028   6.106  0.7896 -0.3360  0.1330
  683UNK    F06 6145  25.522   2.092   6.017 -0.0092 -0.4737  0.3251
  683UNK    F07 6146  25.612   1.896   5.954 -0.2755  0.4253 -0.2740
  683UNK    H08 6147  25.734   2.198   5.900 -0.4038  0.1655 -0.5628
  684UNK    F00 6148  27.370   3.380   3.628 -0.0968  0.1325 -0.0570
  684UNK    C01 6149  27.242   3.367   3.590  0.2286  0.4742  0.4685
  684UNK    H02 6150  27.232   3.380   3.482 -0.7905 -0.5739  0.4214
  684UNK    C03 6151  27.147   3.356   3.678  0.2568  0.4225  0.0059
  684UNK    C04 6152  27.095   3.484   3.738 -0.9164 -0.7534  0.0475
  684UNK    F05 6153  27.196   3.560   3.783  0.4916 -0.5992 -0.1216
  684UNK    F06 6154  27.020   3.555   3.651 -0.1711  0.0987  0.3424
  684UNK    F07 6155  27.020   3.453   3.842  0.1024  1.0911  0.4254
  684UNK    H08 6156  27.079   3.272   3.678  1.8661 -0.9248  2.1815
  685UNK    F00 6157  26.308   4.898   9.209 -0.0503  0.3694 -0.0869
  685UNK    C01 6158  26.416   4.977   9.218  0.6201  0.5491 -0.1552
  685UNK    H02 6159  26.452   4.987   9.320 -1.4292  0.2598  0.6362
  685UNK    C03 6160  26.445   5.049   9.111 -0.5133 -0.7920 -0.1392
  685UNK    C04 6161  26.454   5.196   9.120 -0.2974 -0.4882  1.0505
  685UNK    F05 6162  26.554   5.230   9.202  0.4699  0.0243 -0.1385
  685UNK    F06 6163  26.472   5.247   8.996 -0.1814 -0.1723  0.0503
  685UNK    F07 6164  26.345   5.247   9.174  0.2376  0.3916  0.3720
  685UNK    H08 6165  26.405   5.022   9.015 -3.2103  0.8114  0.4773
  686UNK    F00 6166  25.192   0.925   8.564  0.0806 -0.2961 -0.4277
  686UNK    C01 6167  25.302   0.987   8.521  0.3227  0.0459 -0.3355
  686UNK    H02 6168  25.282   1.092   8.499  3.1009  0.9462  1.2570
  686UNK    C03 6169  25.426   0.948   8.557 -0.3761  0.0242  0.1755
  686UNK    C04 6170  25.544   1.041   8.564  0.0395  0.3109 -0.2175
  686UNK    F05 6171  25.661   0.976   8.547 -0.0026  0.0897  0.1681
  686UNK    F06 6172  25.513   1.132   8.470 -0.3823 -0.1833  0.1169
  686UNK    F07 6173  25.553   1.108   8.683 -0.1407 -0.0798  0.1969
  686UNK    H08 6174  25.454   0.843   8.560  1.2235  0.4721  1.9515
  687UNK    F00 6175  29.794   1.665   9.666 -0.1336 -0.0470 -0.3800
  687UNK    C01 6176  29.720   1.573   9.728  0.7275 -1.3019 -0.1962
  687UNK    H02 6177  29.735   1.567   9.836  0.4981  0.3878 -0.0586
  687UNK    C03 6178  29.613   1.524   9.661 -0.4884 -0.0481  0.5696
  687UNK    C04 6179  29.534   1.402   9.694 -0.6742 -0.4285  0.0219
  687UNK    F05 6180  29.612   1.305   9.747 -0.2819  0.3631 -0.7363
  687UNK    F06 6181  29.431   1.410   9.793 -0.1809 -0.2124 -0.2491
  687UNK    F07 6182  29.487   1.353   9.575  0.5853 -0.0886 -0.4719
  687UNK    H08 6183  29.573   1.583   9.580 -0.3589  0.4731  0.8812
  688UNK    F00 6184  27.712   3.466   7.919 -0.1493 -0.2873  0.5860
  688UNK    C01 6185  27.711   3.540   8.026 -0.1560  0.0712 -0.4036
  688UNK    H02 6186  27.761   3.483   8.104 -2.3097 -0.3263  0.7121
  688UNK    C03 6187  27.715   3.672   8.009 -0.5193 -0.1035 -0.6115
  688UNK    C04 6188  27.789   3.761   8.101  0.2767 -0.5745 -0.1464
  688UNK    F05 6189  27.767   3.893   8.078 -0.4084  0.1251 -0.5183
  688UNK    F06 6190  27.784   3.728   8.232  0.3090  0.2169 -0.6184
  688UNK    F07 6191  27.912   3.740   8.055 -0.1073 -0.0319 -0.0913
  688UNK    H08 6192  27.701   3.710   7.909 -1.2960 -2.1679 -1.3087
  689UNK    F00 6193  27.075   1.165   7.608  0.2443  0.0814  0.3580
  689UNK    C01 6194  27.167   1.240   7.538  0.1562 -0.1114  0.3160
  689UNK    H02 6195  27.165   1.338   7.587  2.5417  1.3357 -2.3532
  689UNK    C03 6196  27.265   1.173   7.467  0.5108  0.5550 -0.5009
  689UNK    C04 6197  27.233   1.125   7.329 -0.3857  0.0576  0.2873
  689UNK    F05 6198  27.332   1.049   7.285 -0.0945  0.1128  0.2868
  689UNK    F06 6199  27.117   1.057   7.328  0.1847 -0.3970  0.3256
  689UNK    F07 6200  27.225   1.225   7.237  0.3431  0.0355 -0.0416
  689UNK    H08 6201  27.338   1.113   7.520  0.1302 -0.9562 -1.6649
  690UNK    F00 6202  25.862   3.539   7.501 -0.0061  0.1660  0.1747
  690UNK    C01 6203  25.910   3.629   7.588 -0.0695  0.3449  0.4034
  690UNK    H02 6204  25.899   3.731   7.549 -2.8652  0.2335  0.8223
  690UNK    C03 6205  26.016   3.584   7.663 -0.4412 -0.4573  1.2824
  690UNK    C04 6206  26.150   3.548   7.599 -0.7752  0.0470 -0.4845
  690UNK    F05 6207  26.136   3.478   7.484 -0.5964  0.1723 -0.2995
  690UNK    F06 6208  26.231   3.653   7.572 -0.0027 -0.3312  0.3737
  690UNK    F07 6209  26.207   3.461   7.689  0.4190  0.0112 -0.3274
  690UNK    H08 6210  26.026   3.612   7.766  0.6602 -1.3708  1.4253
  691UNK    F00 6211  25.478   2.087   8.286 -0.2590 -0.0984 -0.3432
  691UNK    C01 6212  25.504   2.132   8.163 -0.0054  0.9717 -0.6986
  691UNK    H02 6213  25.500   2.050   8.090  2.4899  1.3846 -1.3502
  691UNK    C03 6214  25.493   2.263   8.140 -0.3775 -0.1403 -0.0882
  691UNK    C04 6215  25.593   2.374   8.159  0.5550 -0.1768 -1.0751
  691UNK    F05 6216  25.652   2.352   8.279  0.0796  0.4476  0.7812
  691UNK    F06 6217  25.690   2.356   8.064 -0.3725  0.4388  0.2999
  691UNK    F07 6218  25.537   2.499   8.180 -0.3434 -0.1435 -0.0379
  691UNK    H08 6219  25.397   2.308   8.118 -0.4263 -0.8653 -1.3729
  692UNK    F00 6220  24.408   0.288   7.951  0.2125  0.0245 -0.3792
  692UNK    C01 6221  24.419   0.410   7.896  0.1168 -0.0451  0.3047
  692UNK    H02 6222  24.336   0.441   7.834 -0.4158  1.8014  1.8976
  692UNK    C03 6223  24.539   0.469   7.888  0.1768  0.8257 -0.5659
  692UNK    C04 6224  24.566   0.598   7.821 -1.1113 -0.3143 -0.0999
  692UNK    F05 6225  24.702   0.613   7.816  0.0947 -0.5162  0.1597
  692UNK    F06 6226  24.525   0.593   7.698 -0.1136 -0.0491 -0.4241
  692UNK    F07 6227  24.514   0.708   7.886 -0.0661  0.2408 -0.4224
  692UNK    H08 6228  24.603   0.461   7.974 -1.0095  0.7665  0.3275
  693UNK    F00 6229  28.035   0.846  10.297 -0.0362  0.1327 -0.2327
  693UNK    C01 6230  27.903   0.860  10.309 -0.0324 -0.6056  0.6560
  693UNK    H02 6231  27.850   0.796  10.238  1.3294 -1.5738  0.5009
  693UNK    C03 6232  27.855   0.917  10.415  0.1703  0.5858 -0.5787
  693UNK    C04 6233  27.712   0.914  10.460  0.3583  0.6739  0.8302
  693UNK    F05 6234  27.692   1.015  10.529 -0.7026 -0.1579  0.5501
  693UNK    F06 6235  27.614   0.897  10.364  0.2709  0.1829  0.3862
  693UNK    F07 6236  27.694   0.806  10.537 -0.0051  0.2101 -0.0247
  693UNK    H08 6237  27.929   0.935  10.492  0.2199 -0.1956 -0.4433
  694UNK    F00 6238  22.710   2.858   8.437  0.4308  0.0466  0.0384
  694UNK    C01 6239  22.749   2.984   8.428 -0.6510 -0.1867  0.6544
  694UNK    H02 6240  22.668   3.038   8.378 -0.6622  0.3796  1.2835
  694UNK    C03 6241  22.847   3.026   8.504  0.9476 -0.0811 -0.0659
  694UNK    C04 6242  22.893   3.162   8.542  0.4444  0.3979  0.1273
  694UNK    F05 6243  22.814   3.213   8.637 -0.2483  0.1649  0.2377
  694UNK    F06 6244  23.020   3.165   8.583  0.3630  0.2451  0.0262
  694UNK    F07 6245  22.883   3.241   8.430  0.0486 -0.4624  0.0713
  694UNK    H08 6246  22.868   2.951   8.578 -1.1688  0.1228  0.7762
  695UNK    F00 6247  24.837   0.637   8.483  0.0891  0.0244  0.7266
  695UNK    C01 6248  24.850   0.730   8.389 -0.3084  0.3472 -1.4991
  695UNK    H02 6249  24.926   0.803   8.414 -1.3304  0.2538  2.1949
  695UNK    C03 6250  24.749   0.749   8.307  0.3201  1.0120  0.1391
  695UNK    C04 6251  24.773   0.816   8.177  0.5766  0.2785  0.2725
  695UNK    F05 6252  24.842   0.925   8.197 -0.0350  0.1814  0.0071
  695UNK    F06 6253  24.832   0.737   8.085 -0.1083 -0.0165  0.2565
  695UNK    F07 6254  24.654   0.858   8.128 -0.1318 -0.4050  0.2541
  695UNK    H08 6255  24.646   0.751   8.340  0.0719 -1.1633 -0.4190
  696UNK    F00 6256  26.726   4.967   7.866 -0.2093  0.5187 -0.3368
  696UNK    C01 6257  26.711   4.842   7.836  0.4577  0.3105  0.2994
  696UNK    H02 6258  26.606   4.812   7.826  0.4995 -0.1066  1.0721
  696UNK    C03 6259  26.816   4.760   7.825  0.4935  0.1911  0.0405
  696UNK    C04 6260  26.853   4.680   7.942  0.0892  0.4577  0.3080
  696UNK    F05 6261  26.988   4.676   7.961 -0.5252  0.3362  0.3299
  696UNK    F06 6262  26.792   4.709   8.059 -0.2463  0.5767  0.1124
  696UNK    F07 6263  26.798   4.557   7.921 -0.0073  0.0658 -0.4299
  696UNK    H08 6264  26.835   4.710   7.732  2.8766 -1.2988  1.2857
  697UNK    F00 6265  26.887   4.491   5.410 -0.4318  0.2392 -0.6076
  697UNK    C01 6266  26.905   4.538   5.526 -0.3029 -0.5407 -0.2427
  697UNK    H02 6267  26.930   4.465   5.603  3.5085  0.3925 -0.4878
  697UNK    C03 6268  26.870   4.661   5.543 -0.6437 -0.2433 -0.2652
  697UNK    C04 6269  26.742   4.694   5.604  0.2031  0.3432 -0.3446
  697UNK    F05 6270  26.731   4.820   5.634  0.0005  0.0992 -0.3274
  697UNK    F06 6271  26.642   4.667   5.518  0.5005 -0.0497 -0.6516
  697UNK    F07 6272  26.703   4.615   5.704 -0.6538 -0.1290 -0.3701
  697UNK    H08 6273  26.911   4.739   5.482 -0.4526 -0.5431 -0.5252
  698UNK    F00 6274  25.524   0.360   7.162  0.1027 -0.3329  0.8819
  698UNK    C01 6275  25.598   0.301   7.063  0.2785  0.0644 -0.0033
  698UNK    H02 6276  25.672   0.227   7.093  0.3531  0.4023  0.6588
  698UNK    C03 6277  25.571   0.339   6.941  0.0619 -0.3047 -0.8226
  698UNK    C04 6278  25.631   0.457   6.878 -0.5499  0.4551 -0.2688
  698UNK    F05 6279  25.760   0.438   6.844  0.6871 -0.1712  0.0767
  698UNK    F06 6280  25.564   0.485   6.763  0.6555 -0.4127 -0.3587
  698UNK    F07 6281  25.635   0.555   6.968 -0.0867 -0.1239 -0.3457
  698UNK    H08 6282  25.475   0.314   6.898 -1.0988  2.1363  0.2560
  699UNK    F00 6283  25.541   0.195   4.536 -0.2492 -0.1281  0.3092
  699UNK    C01 6284  25.455   0.298   4.536 -0.6984  0.2858 -0.4683
  699UNK    H02 6285  25.460   0.361   4.625  1.3659 -0.1858 -0.2119
  699UNK    C03 6286  25.389   0.332   4.427 -0.4920  0.5468 -0.3998
  699UNK    C04 6287  25.268   0.415   4.428 -0.8228 -0.2413 -0.1941
  699UNK    F05 6288  25.301   0.541   4.387 -0.4392  0.3013  0.2369
  699UNK    F06 6289  25.190   0.378   4.328  0.2916 -0.0189 -0.2097
  699UNK    F07 6290  25.185   0.422   4.537 -0.2066 -0.6678  0.5774
  699UNK    H08 6291  25.432   0.330   4.327  2.5134 -1.1104  0.8547
  700UNK    F00 6292  28.736   0.736   8.654 -0.4439  0.2741 -0.0879
  700UNK    C01 6293  28.795   0.646   8.738 -0.4113 -0.3823 -0.4007
  700UNK    H02 6294  28.808   0.548   8.692  0.3154  0.0027 -1.0132
  700UNK    C03 6295  28.842   0.676   8.859  0.0456 -0.2989  0.2980
  700UNK    C04 6296  28.941   0.783   8.889  0.0832 -0.6520  0.5360
  700UNK    F05 6297  28.871   0.893   8.875 -0.6532 -0.3407  0.2446
  700UNK    F06 6298  28.987   0.767   9.016  0.1652 -0.3892 -0.6390
  700UNK    F07 6299  29.052   0.771   8.809  0.1354  0.2127  0.4221
  700UNK    H08 6300  28.788   0.643   8.947 -0.8706  3.1114  1.0967
  701UNK    F00 6301  24.225   3.589   6.380 -0.3315 -0.1003 -0.1417
  701UNK    C01 6302  24.226   3.465   6.424 -0.2688 -0.1054 -0.5844
  701UNK    H02 6303  24.231   3.387   6.347 -0.7406 -0.2558 -0.4665
  701UNK    C03 6304  24.248   3.445   6.557 -0.9903  0.4172  0.4392
  701UNK    C04 6305  24.362   3.514   6.630 -0.2131 -0.0992 -0.7723
  701UNK    F05 6306  24.485   3.506   6.569  0.7284 -0.2024  0.4854
  701UNK    F06 6307  24.344   3.647   6.649  0.1183 -0.1471 -0.2658
  701UNK    F07 6308  24.371   3.472   6.758  0.1732 -0.4388 -0.6265
  701UNK    H08 6309  24.204   3.366   6.616 -0.2854  0.7015  1.3524
  702UNK    F00 6310  26.288   2.412   5.785 -0.2366  0.2093 -0.3711
  702UNK    C01 6311  26.179   2.393   5.861  0.3276 -0.2163  0.5574
  702UNK    H02 6312  26.204   2.376   5.966 -0.8136 -0.5042  0.7899
  702UNK    C03 6313  26.055   2.422   5.821 -0.4575  0.1018 -0.0718
  702UNK    C04 6314  25.940   2.435   5.915 -0.2918 -0.7577  0.6267
  702UNK    F05 6315  25.931   2.558   5.969 -0.0587 -0.1082 -0.1230
  702UNK    F06 6316  25.833   2.413   5.833 -0.5395 -0.2264  0.3212
  702UNK    F07 6317  25.932   2.343   6.014 -0.3816  0.0137  0.4753
  702UNK    H08 6318  26.037   2.464   5.723 -0.1290 -0.8864 -0.5605
  703UNK    F00 6319  25.571   0.045   4.205 -0.8111  0.3338  0.4000
  703UNK    C01 6320  25.582  -0.002   4.330 -0.0549 -0.8579  0.2193
  703UNK    H02 6321  25.495   0.018   4.393  1.0075  3.5654  0.4410
  703UNK    C03 6322  25.706  -0.022   4.378 -0.3987  0.1329  0.2032
  703UNK    C04 6323  25.727  -0.108   4.496 -0.7434  0.3131 -0.1260
  703UNK    F05 6324  25.704  -0.235   4.474  0.5713 -0.4860  0.5571
  703UNK    F06 6325  25.851  -0.104   4.532  0.0525 -0.2591  0.2580
  703UNK    F07 6326  25.649  -0.072   4.602  0.1421 -0.0977 -0.2736
  703UNK    H08 6327  25.787   0.046   4.358 -0.3936 -0.0662 -0.4927
  704UNK    F00 6328  29.915   1.136   7.473 -0.0975  0.1221  0.0367
  704UNK    C01 6329  29.888   1.172   7.598  0.3659 -0.5488 -0.2298
  704UNK    H02 6330  29.946   1.255   7.638  0.4539 -1.3738  1.3935
  704UNK    C03 6331  29.766   1.138   7.644 -0.6407  0.8569 -0.8767
  704UNK    C04 6332  29.723   1.138   7.782 -0.8275 -0.6052  0.4799
  704UNK    F05 6333  29.831   1.146   7.868 -0.4770 -0.1021 -0.3958
  704UNK    F06 6334  29.642   1.244   7.802  0.0572  0.0314  0.1825
  704UNK    F07 6335  29.656   1.025   7.813  0.0075  0.1274  0.1242
  704UNK    H08 6336  29.683   1.125   7.576 -1.7640 -0.0487  0.6350
  705UNK    F00 6337  27.481   4.899   5.308  0.0403 -0.5344 -0.1718
  705UNK    C01 6338  27.410   4.805   5.244  0.2802  0.5184 -0.5359
  705UNK    H02 6339  27.455   4.791   5.146  1.8335 -1.0066  0.3513
  705UNK    C03 6340  27.328   4.728   5.315  0.2740 -0.4971  0.1653
  705UNK    C04 6341  27.202   4.774   5.380  0.0401  0.5885  0.9995
  705UNK    F05 6342  27.099   4.717   5.318 -0.2662  0.4507 -0.0139
  705UNK    F06 6343  27.203   4.737   5.510  0.3316 -0.2428 -0.0329
  705UNK    F07 6344  27.187   4.908   5.364  0.0487 -0.0716  0.1603
  705UNK    H08 6345  27.349   4.622   5.319  0.2109 -0.5931 -1.5046
  706UNK    F00 6346  27.725   4.406   6.346 -0.6422  0.2976  0.1021
  706UNK    C01 6347  27.669   4.383   6.230  0.7612  0.7916  0.4979
  706UNK    H02 6348  27.595   4.461   6.208 -1.3951 -1.2616  0.3093
  706UNK    C03 6349  27.655   4.260   6.193  0.1108  0.6441  0.4933
  706UNK    C04 6350  27.533   4.189   6.223 -0.6023 -0.0629 -0.5426
  706UNK    F05 6351  27.443   4.213   6.122  0.1998 -0.4182 -0.3880
  706UNK    F06 6352  27.556   4.054   6.230 -0.2372 -0.1182 -0.0388
  706UNK    F07 6353  27.485   4.226   6.347 -0.4322 -0.0252  0.1471
  706UNK    H08 6354  27.746   4.203   6.196 -1.2654 -1.7089 -1.1876
  707UNK    F00 6355  25.845   2.571   9.627  0.2318 -0.6271  0.0487
  707UNK    C01 6356  25.738   2.546   9.547  0.4769  0.3702 -0.2021
  707UNK    H02 6357  25.753   2.445   9.508  0.0470 -0.3345  1.3916
  707UNK    C03 6358  25.628   2.616   9.563  0.0614  0.7125 -0.2918
  707UNK    C04 6359  25.493   2.589   9.497  0.0852  0.0726  0.2186
  707UNK    F05 6360  25.424   2.485   9.547  0.0464 -0.3017 -0.4308
  707UNK    F06 6361  25.411   2.699   9.496  0.0750 -0.1415  0.4712
  707UNK    F07 6362  25.526   2.556   9.367  0.3536  0.1294  0.3949
  707UNK    H08 6363  25.638   2.716   9.602  1.3042  0.4445  0.0871
  708UNK    F00 6364  27.550   1.341   9.406  0.0612  0.0960 -0.1052
  708UNK    C01 6365  27.668   1.391   9.436 -0.2176  0.0522  0.3804
  708UNK    H02 6366  27.719   1.431   9.348  0.5588 -0.5136  0.5627
  708UNK    C03 6367  27.721   1.396   9.558 -0.4433 -0.1260 -0.0219
  708UNK    C04 6368  27.832   1.489   9.601 -0.3521  0.1679  0.1979
  708UNK    F05 6369  27.787   1.612   9.615  0.2204 -0.3552 -0.1254
  708UNK    F06 6370  27.882   1.447   9.721  0.0277  0.1681  0.3762
  708UNK    F07 6371  27.928   1.501   9.506 -0.1149  0.4162 -0.5944
  708UNK    H08 6372  27.737   1.296   9.596 -0.3420 -0.5116 -1.0676
  709UNK    F00 6373  28.170   1.257  10.390 -0.4600  1.1062  0.0864
  709UNK    C01 6374  28.176   1.386  10.420 -1.0185  0.5051 -0.0929
  709UNK    H02 6375  28.101   1.399  10.499 -1.8765 -0.1669 -0.7824
  709UNK    C03 6376  28.197   1.464  10.319  0.0484 -0.6458  0.0015
  709UNK    C04 6377  28.314   1.554  10.313 -0.6501 -0.0429 -0.0521
  709UNK    F05 6378  28.300   1.638  10.207  0.3236  0.0783 -0.4516
  709UNK    F06 6379  28.327   1.626  10.426 -0.8643 -0.6433 -0.3579
  709UNK    F07 6380  28.431   1.489  10.302  0.2666 -0.5849 -0.6999
  709UNK    H08 6381  28.156   1.440  10.222 -0.8340 -4.0764  1.1829
  710UNK    F00 6382  28.094   4.259   9.024  0.0103  0.2654  0.6737
  710UNK    C01 6383  28.162   4.147   9.002 -0.3726  0.1424 -0.3440
  710UNK    H02 6384  28.254   4.138   9.059 -0.4314 -1.9708 -0.5318
  710UNK    C03 6385  28.101   4.052   8.931  0.2977 -0.5285 -0.1056
  710UNK    C04 6386  28.136   3.907   8.919  0.1555 -0.1742  0.3831
  710UNK    F05 6387  28.049   3.841   8.836  0.3217  0.1252  0.0452
  710UNK    F06 6388  28.266   3.882   8.891 -0.3176  0.1720  0.1426
  710UNK    F07 6389  28.128   3.854   9.044  0.0381 -0.2529 -0.0302
  710UNK    H08 6390  27.998   4.072   8.903 -0.0301 -0.7700  0.9032
  711UNK    F00 6391  29.037   2.141   6.778 -0.1771 -0.5358  0.3458
  711UNK    C01 6392  29.109   2.138   6.889 -0.0404  0.1653 -0.3610
  711UNK    H02 6393  29.054   2.153   6.982 -0.5290  0.9022 -0.7669
  711UNK    C03 6394  29.240   2.146   6.880 -0.7175 -0.5221  0.0450
  711UNK    C04 6395  29.316   2.272   6.858  0.4619 -0.2369  0.1592
  711UNK    F05 6396  29.437   2.244   6.819  0.3753 -0.0248 -0.1302
  711UNK    F06 6397  29.270   2.344   6.750  0.2702 -0.3813 -0.1868
  711UNK    F07 6398  29.312   2.357   6.960  0.0581  0.3648  0.0642
  711UNK    H08 6399  29.296   2.077   6.940  2.1786 -0.3006 -2.2853
  712UNK    F00 6400  26.744   0.617   6.353 -0.2836 -0.1394 -0.3200
  712UNK    C01 6401  26.693   0.642   6.467  0.3268 -0.2016  0.5872
  712UNK    H02 6402  26.705   0.556   6.532 -1.3749 -1.1697 -0.3463
  712UNK    C03 6403  26.627   0.751   6.492 -0.1797 -0.2526 -0.6167
  712UNK    C04 6404  26.576   0.784   6.623 -0.3404 -0.7631  0.4999
  712UNK    F05 6405  26.455   0.841   6.604  0.2325 -0.3858 -0.1607
  712UNK    F06 6406  26.544   0.674   6.697  0.4473  0.3460 -0.0611
  712UNK    F07 6407  26.667   0.851   6.697 -0.0248  0.3575 -0.1737
  712UNK    H08 6408  26.663   0.841   6.443  0.1061  0.3845  0.7192
  713UNK    F00 6409  27.227   0.622   5.729  0.2040 -0.2079 -0.3031
  713UNK    C01 6410  27.128   0.552   5.666  0.1524 -0.1483  0.2701
  713UNK    H02 6411  27.090   0.610   5.581  0.2117 -0.3858  0.0818
  713UNK    C03 6412  27.061   0.481   5.754  0.4559 -0.5725  1.0947
  713UNK    C04 6413  26.986   0.362   5.702 -0.8389  0.3305  0.1477
  713UNK    F05 6414  26.859   0.366   5.741  0.3406  0.2441 -0.7355
  713UNK    F06 6415  26.966   0.353   5.567  0.2446  0.0608 -0.3906
  713UNK    F07 6416  27.043   0.253   5.753 -0.1263 -0.1091  0.4020
  713UNK    H08 6417  27.079   0.488   5.860  0.2159 -1.6535  1.2195
  714UNK    F00 6418  30.050   2.362   7.797 -0.0656 -0.1224  0.5683
  714UNK    C01 6419  30.105   2.486   7.801 -0.3558  0.2627  0.1844
  714UNK    H02 6420  30.095   2.534   7.899  0.9579 -0.1176  0.5076
  714UNK    C03 6421  30.099   2.559   7.689  0.3711  0.1965 -0.5932
  714UNK    C04 6422  30.159   2.697   7.678 -0.1466 -0.1998  0.0058
  714UNK    F05 6423  30.286   2.695   7.724  0.1400 -0.5992 -0.2825
  714UNK    F06 6424  30.168   2.736   7.548  0.2425  0.0616  0.2136
  714UNK    F07 6425  30.100   2.782   7.762 -0.1057 -0.1121 -0.6025
  714UNK    H08 6426  30.015   2.548   7.622 -1.7712  0.0130  2.0035
  715UNK    F00 6427  29.548   3.053   6.545  0.4792 -0.2609  0.9043
  715UNK    C01 6428  29.584   3.032   6.416  0.3298 -0.0619  0.3603
  715UNK    H02 6429  29.687   3.065   6.405  0.1475  1.1342  2.0561
  715UNK    C03 6430  29.490   3.010   6.328 -0.1727  0.0040  0.0324
  715UNK    C04 6431  29.416   3.109   6.245 -0.4465 -0.2156 -0.7868
  715UNK    F05 6432  29.392   3.218   6.324  0.2564  0.5158  0.0169
  715UNK    F06 6433  29.479   3.142   6.134 -0.2893 -0.6464 -0.1079
  715UNK    F07 6434  29.291   3.063   6.219  0.5750 -0.3010 -0.0809
  715UNK    H08 6435  29.468   2.911   6.292 -0.0965 -0.0226  0.0593
  716UNK    F00 6436  27.658   2.120   5.289  0.1051 -0.3617 -0.3726
  716UNK    C01 6437  27.622   2.164   5.165  0.8087 -0.0152  0.1013
  716UNK    H02 6438  27.568   2.082   5.117 -1.7537  0.2988  2.3257
  716UNK    C03 6439  27.702   2.249   5.100  0.2298  0.0331 -0.0495
  716UNK    C04 6440  27.655   2.325   4.979 -0.1590 -0.1430 -0.5480
  716UNK    F05 6441  27.578   2.247   4.897 -0.2718 -0.0170 -0.3809
  716UNK    F06 6442  27.582   2.434   5.015 -0.2434 -0.3160 -0.0570
  716UNK    F07 6443  27.756   2.378   4.910 -0.2196  0.3182  0.4153
  716UNK    H08 6444  27.790   2.296   5.142 -0.8622  1.7519  0.3529
  717UNK    F00 6445  28.301   0.030   8.462  0.2827  0.0646 -0.0372
  717UNK    C01 6446  28.193   0.066   8.389 -0.1435 -0.0674 -0.2632
  717UNK    H02 6447  28.097   0.039   8.432 -0.2925  0.8381 -0.0199
  717UNK    C03 6448  28.215   0.105   8.263 -0.0965 -0.3581 -0.0871
  717UNK    C04 6449  28.118   0.200   8.199  0.1122  0.5336 -0.1750
  717UNK    F05 6450  28.116   0.322   8.252 -0.1034  0.0854 -0.0625
  717UNK    F06 6451  28.153   0.218   8.068  0.0306  0.0022 -0.1120
  717UNK    F07 6452  27.991   0.147   8.193 -0.2283 -0.0320  0.3286
  717UNK    H08 6453  28.261   0.037   8.192 -1.2692  1.3735 -2.5915
  718UNK    F00 6454  25.291   2.859   4.820  0.1994  0.1713 -0.1157
  718UNK    C01 6455  25.411   2.825   4.864 -0.6089  0.3521 -0.2344
  718UNK    H02 6456  25.479   2.907   4.884  0.5838 -0.6734 -0.0243
  718UNK    C03 6457  25.415   2.701   4.920 -0.5395  0.0958  0.3327
  718UNK    C04 6458  25.518   2.658   5.013  0.2092 -0.5139 -0.1318
  718UNK    F05 6459  25.540   2.526   5.006 -0.3937  0.3947  0.0947
  718UNK    F06 6460  25.633   2.713   4.973  0.4386 -0.1813 -0.0829
  718UNK    F07 6461  25.482   2.687   5.138  0.1253 -0.3388  0.1974
  718UNK    H08 6462  25.380   2.619   4.860 -0.5363  0.5381 -0.2790
  719UNK    F00 6463  24.593   2.694   8.761 -0.1794 -0.2966 -0.0268
  719UNK    C01 6464  24.683   2.695   8.858  0.4632 -0.3257 -0.0220
  719UNK    H02 6465  24.665   2.629   8.943 -0.7316  0.5127  0.3940
  719UNK    C03 6466  24.807   2.744   8.842 -0.0903 -0.7022 -0.2675
  719UNK    C04 6467  24.935   2.702   8.914  0.0391 -0.1886 -0.0555
  719UNK    F05 6468  24.990   2.599   8.850  0.4402  0.5853 -0.0373
  719UNK    F06 6469  25.029   2.801   8.906 -0.2868 -0.2455 -0.6416
  719UNK    F07 6470  24.916   2.660   9.044  0.6564 -0.1938 -0.1802
  719UNK    H08 6471  24.805   2.840   8.792 -2.1141 -0.4574  0.2363
  720UNK    F00 6472  26.977   0.689   8.558 -0.1329 -0.0517 -0.4744
  720UNK    C01 6473  26.927   0.605   8.646  0.1985 -0.5147 -0.6960
  720UNK    H02 6474  26.864   0.532   8.596  1.5113 -1.7683 -0.5347
  720UNK    C03 6475  26.956   0.602   8.779  0.9480  0.1891  0.2396
  720UNK    C04 6476  26.923   0.499   8.882 -0.1593  0.3519  0.6615
  720UNK    F05 6477  26.918   0.551   9.007  0.2075  0.4861 -0.1651
  720UNK    F06 6478  26.805   0.444   8.848 -0.2004 -0.0807  0.5247
  720UNK    F07 6479  27.011   0.392   8.888  0.4395 -0.4925  0.2391
  720UNK    H08 6480  27.002   0.694   8.814  0.9401  1.0420 -1.8761
  721UNK    F00 6481  27.466   2.922   8.839  0.3460 -0.4151 -0.2992
  721UNK    C01 6482  27.351   2.913   8.769 -0.7446  0.2186 -0.0435
  721UNK    H02 6483  27.280   2.987   8.807  0.0303  0.8277  0.2409
  721UNK    C03 6484  27.361   2.874   8.638  0.4950 -0.6867 -0.2311
  721UNK    C04 6485  27.255   2.909   8.541  1.1325  0.1929  0.5669
  721UNK    F05 6486  27.214   2.818   8.449 -0.0436 -0.0792 -0.2265
  721UNK    F06 6487  27.139   2.936   8.606  0.5005 -0.0171 -0.2870
  721UNK    F07 6488  27.294   3.014   8.468 -0.4957 -0.1645 -0.5517
  721UNK    H08 6489  27.395   2.771   8.630 -0.0781 -0.9123  0.2846
  722UNK    F00 6490  27.573   4.522   9.399  0.3240 -0.0226  0.4632
  722UNK    C01 6491  27.700   4.547   9.415 -0.1987 -0.0581  0.4378
  722UNK    H02 6492  27.757   4.455   9.411  0.2798  0.2447  0.2539
  722UNK    C03 6493  27.747   4.668   9.368  0.4066 -0.0943  0.1963
  722UNK    C04 6494  27.748   4.800   9.443  0.3277 -0.8735  0.9583
  722UNK    F05 6495  27.756   4.909   9.357 -0.4192  0.2325 -0.5951
  722UNK    F06 6496  27.638   4.828   9.516 -0.4193 -0.2877 -0.0315
  722UNK    F07 6497  27.840   4.815   9.541  0.7383  0.3244 -0.0169
  722UNK    H08 6498  27.742   4.679   9.260 -1.8459 -0.1697  0.2795
  723UNK    F00 6499  26.832   0.173   7.107 -0.6529 -0.3088 -0.0485
  723UNK    C01 6500  26.956   0.207   7.126 -0.3816  0.2396 -0.1819
  723UNK    H02 6501  26.952   0.221   7.234 -4.8536  2.1414 -0.4862
  723UNK    C03 6502  27.066   0.167   7.059  0.5403  0.5453 -0.1728
  723UNK    C04 6503  27.105   0.024   7.052  0.4236  0.2303 -0.4611
  723UNK    F05 6504  27.057  -0.049   6.953  0.0468 -0.3047  0.0284
  723UNK    F06 6505  27.240   0.029   7.041 -0.4851  0.5529  0.1791
  723UNK    F07 6506  27.069  -0.039   7.164  0.0091 -0.0971 -0.0188
  723UNK    H08 6507  27.133   0.246   7.029 -0.5620  1.4376 -0.2642
  724UNK    F00 6508  28.158   2.121   7.112  0.0535 -0.4623  0.5178
  724UNK    C01 6509  28.132   2.011   7.192 -0.0091 -0.6902 -0.2031
  724UNK    H02 6510  28.057   1.946   7.145 -0.3323 -0.2163 -0.3473
  724UNK    C03 6511  28.229   1.986   7.282  0.4655  0.3646  0.2687
  724UNK    C04 6512  28.369   1.972   7.234  0.7587  0.3746 -0.1024
  724UNK    F05 6513  28.417   2.085   7.173  0.0454 -0.2453  0.1338
  724UNK    F06 6514  28.467   1.940   7.317  0.3878  0.2481 -0.6252
  724UNK    F07 6515  28.372   1.865   7.144 -0.0254  0.6104 -0.8499
  724UNK    H08 6516  28.230   2.038   7.377 -0.3473  0.5640  0.1728
  725UNK    F00 6517  25.079   3.908   6.076  0.1103 -0.2600  0.0755
  725UNK    C01 6518  25.021   3.906   6.193  0.1130 -0.2118 -0.3897
  725UNK    H02 6519  24.933   3.970   6.203  0.2441 -0.1573  0.4092
  725UNK    C03 6520  25.094   3.850   6.287  0.4784  0.2566  0.1586
  725UNK    C04 6521  25.186   3.742   6.258  0.4206  0.0495 -0.0942
  725UNK    F05 6522  25.285   3.778   6.168 -0.0245  0.1410  0.1460
  725UNK    F06 6523  25.251   3.704   6.370 -0.4423 -0.0339  0.3443
  725UNK    F07 6524  25.122   3.627   6.227  0.1399  0.1682 -0.2723
  725UNK    H08 6525  25.052   3.842   6.386  0.6208 -1.1366  0.1127
  726UNK    F00 6526  27.985   3.130   8.496 -0.7780  0.1928  0.0240
  726UNK    C01 6527  28.056   3.078   8.396 -1.1651  0.1166  0.4169
  726UNK    H02 6528  28.051   2.969   8.398  1.4243 -0.0160  1.5811
  726UNK    C03 6529  28.101   3.159   8.299  0.0009 -0.4878  0.1868
  726UNK    C04 6530  28.171   3.111   8.178  0.4334 -0.0574  0.6084
  726UNK    F05 6531  28.093   3.046   8.095 -0.3190 -0.2479  0.5562
  726UNK    F06 6532  28.220   3.221   8.108  0.1924  0.0249 -1.1155
  726UNK    F07 6533  28.266   3.021   8.217  0.0063  0.1164 -0.1427
  726UNK    H08 6534  28.076   3.264   8.300  0.3947 -0.3410 -2.0137
  727UNK    F00 6535  27.069   2.703   7.646 -0.2835 -0.4206  0.0490
  727UNK    C01 6536  27.145   2.810   7.668  0.0442  0.3608 -0.4895
  727UNK    H02 6537  27.188   2.803   7.768  0.0794 -1.2111 -0.6066
  727UNK    C03 6538  27.182   2.887   7.566 -0.0772 -0.5568 -0.4037
  727UNK    C04 6539  27.092   2.984   7.502 -0.8098 -0.5247  0.3630
  727UNK    F05 6540  26.972   2.929   7.478  0.4290 -0.0506  0.0090
  727UNK    F06 6541  27.075   3.100   7.578  0.4302 -0.8539 -0.2349
  727UNK    F07 6542  27.154   3.017   7.384 -0.0951 -0.6050  0.0714
  727UNK    H08 6543  27.284   2.886   7.531  0.1353 -1.5504  0.2359
  728UNK    F00 6544  25.736   3.345   8.979  0.4477  0.4580  0.1649
  728UNK    C01 6545  25.733   3.272   8.868 -0.4253 -0.4455  0.0721
  728UNK    H02 6546  25.634   3.227   8.854 -0.2136 -1.5688  2.0311
  728UNK    C03 6547  25.842   3.260   8.797 -0.0164 -0.0007 -0.1597
  728UNK    C04 6548  25.848   3.217   8.660 -0.3573  0.2579  0.1754
  728UNK    F05 6549  25.975   3.192   8.611  0.1146 -0.0282  0.3188
  728UNK    F06 6550  25.790   3.091   8.660 -0.3766  0.6474 -0.0736
  728UNK    F07 6551  25.763   3.293   8.587 -0.2187  0.4089 -0.3397
  728UNK    H08 6552  25.935   3.245   8.851 -0.3095  0.6002  0.5370
  729UNK    F00 6553  26.025   2.853   4.396 -0.1613  0.1606  0.1863
  729UNK    C01 6554  25.939   2.817   4.299  0.1408  0.6230  0.1120
  729UNK    H02 6555  25.901   2.717   4.319  0.1619  0.5558 -0.1819
  729UNK    C03 6556  25.911   2.878   4.183  0.3937 -0.1374 -0.0251
  729UNK    C04 6557  25.776   2.847   4.114 -1.2600 -0.0593 -0.0573
  729UNK    F05 6558  25.794   2.910   3.995  0.0227 -0.2542 -0.1333
  729UNK    F06 6559  25.748   2.717   4.089 -0.0595 -0.0218 -0.4757
  729UNK    F07 6560  25.676   2.919   4.175 -0.7462  0.5328 -0.2702
  729UNK    H08 6561  25.990   2.869   4.110 -0.6403 -0.6123 -1.1093
  730UNK    F00 6562  27.076   1.560   9.896 -0.1608 -0.2906  0.4227
  730UNK    C01 6563  27.038   1.443   9.837  0.7745 -0.5534  0.3012
  730UNK    H02 6564  26.995   1.369   9.906 -3.2272  0.0925 -1.3372
  730UNK    C03 6565  27.010   1.445   9.709  0.1121 -0.3520 -0.2259
  730UNK    C04 6566  26.981   1.319   9.647  0.3865 -0.4631 -0.0518
  730UNK    F05 6567  26.868   1.256   9.691  0.1495  0.4043 -0.3353
  730UNK    F06 6568  26.971   1.345   9.515 -0.1651  0.2788 -0.5641
  730UNK    F07 6569  27.090   1.242   9.668  0.1227 -0.2302 -0.3315
  730UNK    H08 6570  26.940   1.521   9.677  0.3346  0.8853  2.0687
  731UNK    F00 6571  26.807   1.013   6.002 -0.0241  0.1746 -0.0318
  731UNK    C01 6572  26.916   0.947   5.956  0.9985 -0.1086 -0.7652
  731UNK    H02 6573  26.916   0.921   5.850  0.2047  1.5313 -1.1879
  731UNK    C03 6574  26.994   0.898   6.050  0.0980  0.6736  0.1004
  731UNK    C04 6575  26.969   0.765   6.115  0.2427 -0.0678  0.0732
  731UNK    F05 6576  27.027   0.762   6.238 -0.2636  0.0401 -0.1786
  731UNK    F06 6577  26.845   0.731   6.142 -0.0406 -0.6592  0.5069
  731UNK    F07 6578  27.015   0.654   6.054  0.0164 -0.4719 -0.4633
  731UNK    H08 6579  27.099   0.920   6.059  0.0516  0.9870 -0.0936
  732UNK    F00 6580  26.887   2.968   8.323  0.1916 -0.3635  0.0758
  732UNK    C01 6581  26.803   3.070   8.351 -0.5843  0.3057 -0.3151
  732UNK    H02 6582  26.746   3.092   8.261  0.2036 -2.3417 -1.5154
  732UNK    C03 6583  26.818   3.134   8.467 -0.8705  0.4783  0.5500
  732UNK    C04 6584  26.921   3.241   8.492  0.4762  0.2508 -0.0522
  732UNK    F05 6585  26.961   3.252   8.618  0.4421  0.1849  0.1042
  732UNK    F06 6586  27.030   3.214   8.418  0.2230  0.0020 -0.3832
  732UNK    F07 6587  26.870   3.365   8.457 -0.1022 -0.1838 -0.4019
  732UNK    H08 6588  26.791   3.081   8.557 -0.1872 -1.7449 -0.5329
  733UNK    F00 6589  27.236   3.072   9.659 -0.4994 -0.3941  0.1642
  733UNK    C01 6590  27.152   2.998   9.725 -0.1926  0.4312  0.2068
  733UNK    H02 6591  27.120   2.913   9.665 -0.9231 -0.0291  1.2377
  733UNK    C03 6592  27.177   2.985   9.854 -0.1945 -0.2818 -0.2558
  733UNK    C04 6593  27.087   2.900   9.942 -0.0324  0.0403  0.1461
  733UNK    F05 6594  27.130   2.770   9.946 -0.0454 -0.3917 -0.0960
  733UNK    F06 6595  27.089   2.941  10.070  0.3502  0.3144  0.0134
  733UNK    F07 6596  26.956   2.911   9.905  0.1076  0.1749  1.0875
  733UNK    H08 6597  27.274   3.007   9.894  0.8903 -2.3904 -1.6010
  734UNK    F00 6598  28.533   1.554   8.162  0.1919  0.1327  0.3277
  734UNK    C01 6599  28.660   1.576   8.202  0.5485  1.0146  0.5159
  734UNK    H02 6600  28.674   1.675   8.245  1.3917  1.1734 -0.1026
  734UNK    C03 6601  28.758   1.487   8.195 -0.1144  0.2480  0.1279
  734UNK    C04 6602  28.838   1.472   8.070  0.2561  0.7551 -0.0951
  734UNK    F05 6603  28.935   1.562   8.073  0.2836  0.9399 -0.0398
  734UNK    F06 6604  28.905   1.354   8.068  0.2800 -0.1342 -0.1769
  734UNK    F07 6605  28.752   1.480   7.965  0.2499 -0.2182 -0.0259
  734UNK    H08 6606  28.743   1.385   8.228 -1.2565  0.6596  0.8935
  735UNK    F00 6607  29.344   4.569   7.339  0.4557  0.0844  0.3651
  735UNK    C01 6608  29.408   4.691   7.353 -0.4206  0.0684  0.3808
  735UNK    H02 6609  29.497   4.698   7.289 -0.7974 -2.0613 -0.4121
  735UNK    C03 6610  29.340   4.795   7.406 -0.7236  0.4359 -0.1388
  735UNK    C04 6611  29.376   4.935   7.374 -0.4678 -0.9261  0.7520
  735UNK    F05 6612  29.355   4.987   7.251 -0.2951 -0.2420  0.0515
  735UNK    F06 6613  29.305   5.019   7.457  0.3777  0.5391  0.0919
  735UNK    F07 6614  29.498   4.957   7.420 -0.0952 -0.5343  0.0121
  735UNK    H08 6615  29.300   4.800   7.506  0.0220  0.6715  0.1546
  736UNK    F00 6616  26.883   0.402   6.004 -0.2191 -0.2925 -0.4007
  736UNK    C01 6617  26.761   0.351   5.998 -0.6611 -0.2148  1.0608
  736UNK    H02 6618  26.761   0.252   5.953 -3.1660  1.5855 -3.1613
  736UNK    C03 6619  26.655   0.403   6.067 -0.1612  0.6841  0.6168
  736UNK    C04 6620  26.527   0.333   6.069  0.3851 -0.2233 -0.1487
  736UNK    F05 6621  26.434   0.408   6.127 -0.3351  0.4591 -0.0103
  736UNK    F06 6622  26.483   0.313   5.951 -0.2831 -0.0013 -0.1214
  736UNK    F07 6623  26.532   0.216   6.136 -0.0095 -0.8245  0.0851
  736UNK    H08 6624  26.671   0.467   6.152 -0.0082 -0.2239  1.2814
  737UNK    F00 6625  26.718   4.575   3.266 -0.3651  0.7129 -0.1610
  737UNK    C01 6626  26.812   4.529   3.358  0.5180 -0.0170 -0.5214
  737UNK    H02 6627  26.874   4.612   3.391 -0.7047  0.5480  0.3935
  737UNK    C03 6628  26.810   4.399   3.394 -0.0614 -0.2604  0.1173
  737UNK    C04 6629  26.867   4.362   3.524 -0.1310  0.0363 -0.2099
  737UNK    F05 6630  26.960   4.451   3.568  0.4951  0.2192 -0.3592
  737UNK    F06 6631  26.776   4.359   3.622  0.1017  0.4145  0.3335
  737UNK    F07 6632  26.924   4.237   3.529 -0.1813 -0.0512 -0.2162
  737UNK    H08 6633  26.773   4.327   3.323 -0.4012 -0.4416  0.4764
  738UNK    F00 6634  24.117   2.049   8.557  0.2816 -0.4487 -0.5088
  738UNK    C01 6635  24.168   2.159   8.497  0.0743  0.2922  0.0288
  738UNK    H02 6636  24.243   2.122   8.427 -1.7807  1.7912 -2.8628
  738UNK    C03 6637  24.100   2.274   8.481 -0.0940 -0.2672 -0.0664
  738UNK    C04 6638  23.955   2.279   8.447 -0.4584 -0.3324  0.3988
  738UNK    F05 6639  23.908   2.167   8.393  0.0415 -0.2470  0.2763
  738UNK    F06 6640  23.873   2.325   8.542 -0.0881 -0.0373  0.0805
  738UNK    F07 6641  23.952   2.370   8.347  0.0406  0.2419 -0.0364
  738UNK    H08 6642  24.152   2.368   8.490 -0.7422  0.1898 -1.0080
  739UNK    F00 6643  25.357   4.785   9.924 -0.2210  0.5275 -0.3877
  739UNK    C01 6644  25.317   4.863   9.820  0.7449 -0.7126  0.0131
  739UNK    H02 6645  25.394   4.895   9.750  2.2203 -1.4837  1.2430
  739UNK    C03 6646  25.190   4.901   9.811  0.4184  0.7611 -0.3263
  739UNK    C04 6647  25.125   4.962   9.694  0.0012 -0.0576 -0.1613
  739UNK    F05 6648  25.016   5.032   9.732  0.2913 -0.2451 -0.2138
  739UNK    F06 6649  25.196   5.043   9.621  0.1268 -0.3301 -0.2047
  739UNK    F07 6650  25.069   4.859   9.625 -0.0330  0.5077  0.2051
  739UNK    H08 6651  25.115   4.874   9.884  0.1912  0.4701 -0.6679
  740UNK    F00 6652  26.775   3.965   5.608  0.0634 -0.3459 -0.3069
  740UNK    C01 6653  26.906   3.933   5.601 -0.0641  0.2140 -0.1372
  740UNK    H02 6654  26.926   3.896   5.500 -1.9718 -0.1555 -0.3909
  740UNK    C03 6655  26.992   3.943   5.705  0.5422 -0.4127 -0.4035
  740UNK    C04 6656  27.039   3.831   5.790 -0.0213 -0.3846  0.3035
  740UNK    F05 6657  27.053   3.879   5.917 -0.1741  0.1697  0.1326
  740UNK    F06 6658  26.955   3.725   5.783 -0.0135 -0.1396 -0.1632
  740UNK    F07 6659  27.161   3.784   5.747  0.1320 -0.1909  0.1575
  740UNK    H08 6660  27.044   4.034   5.733 -0.5600  0.0110  0.3063
  741UNK    F00 6661  25.790   0.738   5.909  0.4321 -0.2418  0.1970
  741UNK    C01 6662  25.906   0.806   5.894 -0.6050 -0.2396 -0.3611
  741UNK    H02 6663  25.906   0.868   5.804 -2.4902 -1.3634 -1.1535
  741UNK    C03 6664  25.976   0.823   6.007  0.0937  0.3162  0.8000
  741UNK    C04 6665  26.094   0.742   6.030 -0.4024 -0.0221 -0.4568
  741UNK    F05 6666  26.097   0.607   5.999  0.0730 -0.5348 -0.0051
  741UNK    F06 6667  26.208   0.794   5.980 -0.0037  0.1417 -0.4399
  741UNK    F07 6668  26.131   0.740   6.158 -0.0741 -0.3638  0.2077
  741UNK    H08 6669  25.962   0.919   6.055  0.2454 -0.6637  2.8362
  742UNK    F00 6670  26.575   0.313   7.755 -0.3946  0.1820 -0.0822
  742UNK    C01 6671  26.519   0.189   7.740  1.1486  0.1938  0.0569
  742UNK    H02 6672  26.486   0.154   7.838  1.6464  3.5841  1.4893
  742UNK    C03 6673  26.537   0.120   7.634  0.3494 -0.7944 -0.0725
  742UNK    C04 6674  26.624  -0.005   7.642  0.6789  0.4309 -0.0868
  742UNK    F05 6675  26.741   0.027   7.688 -0.0861  0.2311 -1.0688
  742UNK    F06 6676  26.570  -0.107   7.716 -0.8247 -0.1208  0.1568
  742UNK    F07 6677  26.646  -0.067   7.527  0.5167 -0.2284 -0.4668
  742UNK    H08 6678  26.550   0.177   7.544  3.4982 -0.9409  0.2326
  743UNK    F00 6679  24.542   3.308   9.821 -0.5317 -0.3716  0.0402
  743UNK    C01 6680  24.635   3.281   9.920  0.5482 -0.3778  0.3673
  743UNK    H02 6681  24.576   3.241  10.002 -0.3960 -0.8792 -0.5401
  743UNK    C03 6682  24.738   3.362   9.936  0.1693 -0.1614 -0.1872
  743UNK    C04 6683  24.867   3.322   9.991 -0.1103 -0.4266  0.6476
  743UNK    F05 6684  24.945   3.253   9.902 -0.1892 -0.0440  0.5772
  743UNK    F06 6685  24.939   3.427  10.044 -0.3051 -0.1816 -0.0181
  743UNK    F07 6686  24.856   3.235  10.090  0.1998  0.0233  0.2140
  743UNK    H08 6687  24.725   3.469   9.934  0.5353 -0.0776  1.0626
  744UNK    F00 6688  27.295   3.000   6.799 -0.3236 -0.2113  0.0650
  744UNK    C01 6689  27.351   2.989   6.921  0.5257 -0.3811 -0.5347
  744UNK    H02 6690  27.335   3.080   6.979  0.5174 -0.4559 -0.4214
  744UNK    C03 6691  27.388   2.868   6.968 -0.2682  0.5615  0.0558
  744UNK    C04 6692  27.314   2.744   6.976 -0.2444 -0.4711 -0.2013
  744UNK    F05 6693  27.195   2.755   7.036  0.5212  0.1940 -0.2008
  744UNK    F06 6694  27.287   2.685   6.857 -0.1761  0.2008 -0.7034
  744UNK    F07 6695  27.390   2.639   7.020  0.1490  0.5730  0.0250
  744UNK    H08 6696  27.493   2.844   6.970 -0.0225  1.5767 -0.4577
  745UNK    F00 6697  27.213   3.848   8.175  0.3132 -0.2044 -0.0489
  745UNK    C01 6698  27.095   3.797   8.217  0.0687  0.2138 -0.1130
  745UNK    H02 6699  27.113   3.743   8.309  2.6617  2.0240  0.4935
  745UNK    C03 6700  26.999   3.789   8.127 -0.2781 -0.0493  0.0277
  745UNK    C04 6701  26.992   3.697   8.008  0.5759 -0.3290  0.3174
  745UNK    F05 6702  26.922   3.585   8.035 -0.4259 -0.2829  0.2600
  745UNK    F06 6703  26.942   3.767   7.903 -0.3684 -0.2475 -0.3926
  745UNK    F07 6704  27.114   3.657   7.969  0.0532  0.4990 -0.3910
  745UNK    H08 6705  26.923   3.865   8.130  0.8143  1.1635 -1.8095
  746UNK    F00 6706  30.246   1.413   6.151  0.5409  0.0056 -0.0394
  746UNK    C01 6707  30.218   1.548   6.125  0.6155 -0.5970 -0.0898
  746UNK    H02 6708  30.127   1.581   6.175  1.5622  1.5813  0.2659
  746UNK    C03 6709  30.273   1.597   6.020 -0.1980  0.1232  0.7939
  746UNK    C04 6710  30.256   1.739   5.977  0.2154  0.1979  0.5649
  746UNK    F05 6711  30.324   1.762   5.867 -0.3158  0.2403  0.1268
  746UNK    F06 6712  30.131   1.783   5.950  0.1163  0.8684  0.2040
  746UNK    F07 6713  30.311   1.822   6.066 -0.2701  0.1551  0.0706
  746UNK    H08 6714  30.322   1.528   5.954  2.2026  2.4496  0.0654
  747UNK    F00 6715  25.857   2.406   6.316 -0.1110 -0.2925  0.0937
  747UNK    C01 6716  25.862   2.537   6.301 -0.2150 -0.0637 -0.4278
  747UNK    H02 6717  25.968   2.558   6.289  0.0316 -1.5671 -1.0150
  747UNK    C03 6718  25.761   2.617   6.335  0.0104 -0.3327  0.4384
  747UNK    C04 6719  25.730   2.737   6.259 -0.9015  0.5248  0.1783
  747UNK    F05 6720  25.678   2.846   6.323  0.0635  0.1307 -0.0780
  747UNK    F06 6721  25.852   2.771   6.210  0.6647 -0.0831  0.1910
  747UNK    F07 6722  25.653   2.718   6.152  0.4653 -0.4508 -0.3761
  747UNK    H08 6723  25.679   2.579   6.394 -0.8808 -1.5217 -1.4865
  748UNK    F00 6724  26.497   3.303   7.520 -0.4237  0.0057 -0.0706
  748UNK    C01 6725  26.417   3.196   7.494  0.0784  0.9268 -0.4339
  748UNK    H02 6726  26.429   3.125   7.576  1.4340 -0.0840 -1.4747
  748UNK    C03 6727  26.313   3.213   7.415 -0.1692 -0.2679 -0.5335
  748UNK    C04 6728  26.201   3.120   7.403 -0.3049  0.2066 -0.0459
  748UNK    F05 6729  26.137   3.144   7.285  0.3372  0.3662  0.1309
  748UNK    F06 6730  26.253   2.995   7.400  0.3652  0.5394  0.1558
  748UNK    F07 6731  26.104   3.124   7.490 -0.2589 -0.7998  0.0510
  748UNK    H08 6732  26.293   3.311   7.374  1.5223 -0.2545 -1.3640
  749UNK    F00 6733  26.122   5.137   9.312  0.7520  0.5193 -0.2245
  749UNK    C01 6734  26.102   5.219   9.413  0.1801 -0.3494 -0.1691
  749UNK    H02 6735  26.004   5.211   9.462  0.5256 -1.2665  0.3683
  749UNK    C03 6736  26.211   5.269   9.469  0.4654  0.7572 -0.1147
  749UNK    C04 6737  26.225   5.307   9.612 -0.0361 -0.3764  0.2931
  749UNK    F05 6738  26.206   5.206   9.695  0.3777  0.2155  0.1162
  749UNK    F06 6739  26.350   5.343   9.646  0.1905 -0.1441 -0.1526
  749UNK    F07 6740  26.145   5.409   9.638 -0.5010  0.2754  0.1251
  749UNK    H08 6741  26.280   5.310   9.398 -0.9371  0.7817 -1.4928
  750UNK    F00 6742  29.500   1.836   6.569 -0.3729  0.0120  0.1916
  750UNK    C01 6743  29.539   1.813   6.692  0.0830  0.3398 -0.2572
  750UNK    H02 6744  29.626   1.868   6.728 -0.8063  0.1842  2.2012
  750UNK    C03 6745  29.485   1.703   6.750  0.0697  0.2110  0.1892
  750UNK    C04 6746  29.543   1.567   6.729  0.5236 -0.3113 -0.4339
  750UNK    F05 6747  29.647   1.537   6.812  0.0240 -0.2092  0.6671
  750UNK    F06 6748  29.449   1.474   6.760  0.1232  0.3714 -0.5171
  750UNK    F07 6749  29.580   1.528   6.607 -0.0752 -0.2145 -0.0235
  750UNK    H08 6750  29.422   1.718   6.837  0.4307 -0.0015  0.4867
  751UNK    F00 6751  28.925   2.162   8.948 -0.0436 -0.3678 -0.1546
  751UNK    C01 6752  28.938   2.303   8.920  0.2275 -0.2841  0.2887
  751UNK    H02 6753  29.038   2.325   8.882 -0.7835  1.8223 -1.2450
  751UNK    C03 6754  28.871   2.394   9.000  0.4519  0.2970 -0.0065
  751UNK    C04 6755  28.832   2.523   8.942  0.1206 -0.2571  0.1361
  751UNK    F05 6756  28.908   2.558   8.839 -0.7501 -0.6725  0.4892
  751UNK    F06 6757  28.701   2.534   8.901  0.4276  0.1811  0.2682
  751UNK    F07 6758  28.862   2.625   9.024  0.3591 -0.3114 -0.0428
  751UNK    H08 6759  28.879   2.391   9.108 -3.2938  1.9069  0.3923
  752UNK    F00 6760  25.829   1.123   8.306 -0.3998  0.3032  0.2094
  752UNK    C01 6761  25.839   1.168   8.177 -0.0207 -0.4511  0.2645
  752UNK    H02 6762  25.807   1.083   8.116 -0.0795  0.1211 -0.5111
  752UNK    C03 6763  25.813   1.299   8.170  0.1282  0.0446 -0.3888
  752UNK    C04 6764  25.890   1.397   8.254 -0.4953  0.1062 -0.1078
  752UNK    F05 6765  26.013   1.419   8.198 -0.0452 -0.2248 -0.0665
  752UNK    F06 6766  25.833   1.515   8.263  0.1232 -0.2668 -0.2856
  752UNK    F07 6767  25.914   1.360   8.384 -0.1165 -0.2905 -0.0292
  752UNK    H08 6768  25.714   1.333   8.143  0.8677  1.4390 -1.4076
  753UNK    F00 6769  27.294   3.888   4.519 -0.2689  0.0681 -0.1041
  753UNK    C01 6770  27.413   3.908   4.461  0.4348 -0.0237  0.1715
  753UNK    H02 6771  27.494   3.862   4.518  0.2247  0.6704  1.0510
  753UNK    C03 6772  27.431   3.967   4.344 -0.5427  0.3587  0.2421
  753UNK    C04 6773  27.551   3.951   4.254  0.0117  1.4235 -0.4256
  753UNK    F05 6774  27.517   3.857   4.164 -0.1287  0.5938  0.7651
  753UNK    F06 6775  27.580   4.069   4.186  0.0375  0.1126  0.7473
  753UNK    F07 6776  27.660   3.915   4.326 -0.5077  0.3468  0.2437
  753UNK    H08 6777  27.353   4.027   4.300  1.5819  1.9779 -1.3770
  754UNK    F00 6778  27.489   4.147   5.830 -0.1802 -0.5445  0.0620
  754UNK    C01 6779  27.447   4.051   5.907  0.3027 -0.0457  0.0345
  754UNK    H02 6780  27.350   4.070   5.952  0.0243 -0.6185 -0.3115
  754UNK    C03 6781  27.533   3.953   5.931  1.0733  0.2887 -0.3298
  754UNK    C04 6782  27.500   3.807   5.925 -0.4055 -0.7579  0.2711
  754UNK    F05 6783  27.373   3.801   5.967 -0.4351 -0.4578  0.3667
  754UNK    F06 6784  27.498   3.770   5.795 -0.1758 -0.2706  0.0834
  754UNK    F07 6785  27.594   3.731   5.989 -0.3512  0.4853  0.0337
  754UNK    H08 6786  27.626   3.967   5.984  1.2378  2.3604 -1.1328
  755UNK    F00 6787  27.931   2.800   9.083 -0.1397  0.3420  0.3727
  755UNK    C01 6788  27.926   2.670   9.096  0.0374  0.5707 -0.4068
  755UNK    H02 6789  27.825   2.632   9.079 -1.0535  3.2624 -0.2205
  755UNK    C03 6790  28.037   2.609   9.143  0.3618 -0.1291  0.1640
  755UNK    C04 6791  28.074   2.591   9.284 -0.1578  0.1797 -0.2532
  755UNK    F05 6792  28.206   2.560   9.306 -0.1268 -0.3223  0.3892
  755UNK    F06 6793  28.047   2.706   9.357 -0.0482 -0.3393 -0.3343
  755UNK    F07 6794  27.995   2.496   9.338  1.0192 -0.3724  0.9559
  755UNK    H08 6795  28.125   2.628   9.083 -0.3541  1.6963 -0.3684
  756UNK    F00 6796  29.330   4.372   7.999 -0.9884 -0.3914 -0.2109
  756UNK    C01 6797  29.283   4.345   7.877  0.2692  0.3136 -0.3494
  756UNK    H02 6798  29.321   4.430   7.820 -0.9618 -0.3530 -2.2127
  756UNK    C03 6799  29.248   4.223   7.844  0.2728  0.0006 -0.3331
  756UNK    C04 6800  29.317   4.101   7.874 -0.2930  0.0448 -0.1875
  756UNK    F05 6801  29.276   4.061   8.000  0.8833  0.5291  0.0880
  756UNK    F06 6802  29.259   4.005   7.800 -0.6596  0.2737  0.1366
  756UNK    F07 6803  29.452   4.087   7.859 -0.0137  0.8451 -0.6277
  756UNK    H08 6804  29.141   4.209   7.853  0.3527  0.5382  1.8451
  757UNK    F00 6805  25.872   1.219   4.411  0.2873 -0.0093 -0.1214
  757UNK    C01 6806  25.874   1.197   4.278 -0.7461  0.5062 -0.1640
  757UNK    H02 6807  25.832   1.099   4.252  1.2720 -0.3239 -0.3452
  757UNK    C03 6808  25.919   1.290   4.195 -0.6872  0.2567 -0.6564
  757UNK    C04 6809  25.911   1.273   4.051  0.5268 -0.9342 -0.3682
  757UNK    F05 6810  25.940   1.156   4.016 -0.3865 -0.1015 -0.1684
  757UNK    F06 6811  25.785   1.309   4.003  0.4845  0.1287  0.0404
  757UNK    F07 6812  25.992   1.358   3.986 -0.0338  0.3087  0.0361
  757UNK    H08 6813  25.938   1.394   4.220  0.1304  0.2643 -1.2867
  758UNK    F00 6814  25.978   0.578   5.338  0.1190  0.5192  0.0687
  758UNK    C01 6815  26.006   0.467   5.275  0.2436  0.2325  0.1223
  758UNK    H02 6816  25.962   0.382   5.328 -0.9092  1.9580  2.0214
  758UNK    C03 6817  26.041   0.478   5.150 -0.5066  0.2775  0.2239
  758UNK    C04 6818  25.933   0.501   5.051  0.0425 -0.5094 -0.6756
  758UNK    F05 6819  25.936   0.427   4.938 -0.2822  0.4942  0.4983
  758UNK    F06 6820  25.811   0.459   5.103 -0.1273 -0.3125  0.0984
  758UNK    F07 6821  25.935   0.634   5.018 -0.0094 -0.0285  0.1994
  758UNK    H08 6822  26.137   0.448   5.111 -0.3984 -0.9489  1.4170
  759UNK    F00 6823  26.834   4.745   7.514  0.3294  0.0781  0.0037
  759UNK    C01 6824  26.741   4.829   7.472 -0.2730 -0.4974 -0.3909
  759UNK    H02 6825  26.727   4.923   7.526  3.1875  0.4986 -1.1035
  759UNK    C03 6826  26.654   4.782   7.388 -0.5916  0.3723  0.0493
  759UNK    C04 6827  26.696   4.695   7.275  0.0278  0.3954  0.3118
  759UNK    F05 6828  26.603   4.673   7.181 -0.2570  0.3133 -0.7600
  759UNK    F06 6829  26.787   4.758   7.196 -0.0328 -0.0277  0.0099
  759UNK    F07 6830  26.744   4.571   7.312  0.2744 -0.5275  0.2989
  759UNK    H08 6831  26.547   4.795   7.402 -0.3013  1.8063  0.9694
  760UNK    F00 6832  28.407   3.568   8.211 -0.3359 -0.0638  0.1764
  760UNK    C01 6833  28.446   3.695   8.221  0.2263  0.0259 -0.4387
  760UNK    H02 6834  28.420   3.745   8.128 -0.5068 -1.0739 -0.8261
  760UNK    C03 6835  28.559   3.718   8.287  0.0344 -0.4068  0.5026
  760UNK    C04 6836  28.570   3.700   8.429  0.0326  0.0363 -0.6491
  760UNK    F05 6837  28.608   3.577   8.463 -0.1403  0.0166 -0.2797
  760UNK    F06 6838  28.647   3.784   8.497 -0.4964 -0.0807 -0.5934
  760UNK    F07 6839  28.453   3.713   8.493  0.3528  0.1145  0.4075
  760UNK    H08 6840  28.646   3.762   8.240  0.0883 -0.1155  0.8733
  761UNK    F00 6841  27.180   0.018   9.058  0.2548  0.0706 -0.1000
  761UNK    C01 6842  27.244   0.042   8.949  0.0455  0.2498  0.4181
  761UNK    H02 6843  27.324  -0.026   8.920 -0.6649 -0.3681 -0.1115
  761UNK    C03 6844  27.232   0.164   8.910  0.3748  0.2655 -0.6930
  761UNK    C04 6845  27.290   0.219   8.783 -0.3076  0.4633 -0.8088
  761UNK    F05 6846  27.415   0.172   8.748  0.0707 -0.0131 -0.2144
  761UNK    F06 6847  27.213   0.209   8.671 -0.2357  0.2350  0.5681
  761UNK    F07 6848  27.319   0.347   8.812 -0.5209 -0.1703 -0.5529
  761UNK    H08 6849  27.234   0.242   8.984  2.5105  2.7680 -3.2748
  762UNK    F00 6850  26.633   1.618   5.242 -0.0001 -0.4724 -0.5104
  762UNK    C01 6851  26.501   1.633   5.233 -0.1738 -0.0179  0.6934
  762UNK    H02 6852  26.471   1.738   5.234  1.7419  0.5376  1.3143
  762UNK    C03 6853  26.418   1.527   5.244 -0.2251 -0.2287  0.2745
  762UNK    C04 6854  26.285   1.522   5.180 -0.4010  1.4069  0.3881
  762UNK    F05 6855  26.290   1.480   5.051 -0.4783  0.5640  0.0464
  762UNK    F06 6856  26.214   1.421   5.237 -0.0879 -0.2419 -0.2540
  762UNK    F07 6857  26.225   1.644   5.181  0.0383  0.0256 -0.0343
  762UNK    H08 6858  26.455   1.427   5.256  0.0836 -0.4630 -2.5041
  763UNK    F00 6859  26.418   1.660   8.392 -0.0080 -0.3399  0.1185
  763UNK    C01 6860  26.487   1.754   8.458  0.1330 -0.2810 -0.7025
  763UNK    H02 6861  26.463   1.857   8.434  1.4763  0.3056  0.3762
  763UNK    C03 6862  26.546   1.715   8.574  0.4475 -0.4478  0.4754
  763UNK    C04 6863  26.579   1.801   8.682 -0.9121  0.2437 -0.4415
  763UNK    F05 6864  26.645   1.728   8.777 -0.3772 -0.1106 -0.1985
  763UNK    F06 6865  26.657   1.905   8.644  0.0396  0.1596 -0.2441
  763UNK    F07 6866  26.464   1.842   8.738 -0.8940  0.2426 -0.0735
  763UNK    H08 6867  26.545   1.608   8.591  0.9152 -0.8881 -1.9697
  764UNK    F00 6868  24.521   1.067   7.353  0.3603 -0.3343  0.6835
  764UNK    C01 6869  24.423   0.985   7.356  0.4416  0.3594 -0.2439
  764UNK    H02 6870  24.416   0.943   7.456 -2.6392  0.8828 -0.2056
  764UNK    C03 6871  24.316   1.009   7.279 -0.1320  0.4627  0.5748
  764UNK    C04 6872  24.184   0.955   7.308 -0.4747 -1.2063  0.0122
  764UNK    F05 6873  24.123   1.033   7.398  0.0075  0.4663 -0.9724
  764UNK    F06 6874  24.101   0.954   7.204  0.8490  0.2905  0.2671
  764UNK    F07 6875  24.199   0.827   7.358 -0.3027  0.3902 -0.1625
  764UNK    H08 6876  24.309   1.090   7.207  0.3901 -1.0129 -1.1618
  765UNK    F00 6877  23.962   3.142   6.715 -0.2142  0.3192  0.4857
  765UNK    C01 6878  23.881   3.138   6.823  0.7865 -0.2641  0.0994
  765UNK    H02 6879  23.813   3.052   6.826  0.0517  0.3201  0.4224
  765UNK    C03 6880  23.940   3.201   6.927  0.0913 -0.3026  0.5357
  765UNK    C04 6881  23.955   3.348   6.925  0.2266  0.3687 -0.4139
  765UNK    F05 6882  23.837   3.410   6.911 -0.0117  0.0122  0.2033
  765UNK    F06 6883  24.011   3.396   7.039 -0.5960 -0.1519  0.4540
  765UNK    F07 6884  24.025   3.382   6.812 -0.0947 -0.7206 -0.2329
  765UNK    H08 6885  23.962   3.148   7.019  1.0198 -1.9761 -0.6228
  766UNK    F00 6886  25.484   3.459   3.526  0.7183 -0.4748 -0.2391
  766UNK    C01 6887  25.448   3.528   3.638 -0.2829 -0.6341  0.8463
  766UNK    H02 6888  25.339   3.540   3.638 -0.0734  1.3345  1.7076
  766UNK    C03 6889  25.510   3.522   3.752 -0.0732  0.1288 -0.6492
  766UNK    C04 6890  25.448   3.544   3.884  0.6488  0.1031 -0.1721
  766UNK    F05 6891  25.375   3.438   3.918  0.4796  0.1618 -0.0934
  766UNK    F06 6892  25.534   3.564   3.986  0.1092  0.4727  0.2400
  766UNK    F07 6893  25.360   3.649   3.884 -0.3313  0.3613  0.0534
  766UNK    H08 6894  25.605   3.470   3.756  0.7699  1.6606 -0.2249
  767UNK    F00 6895  28.339   1.327   6.064  0.5907 -0.3177  0.2435
  767UNK    C01 6896  28.218   1.334   6.117 -0.2048  0.1369  0.7563
  767UNK    H02 6897  28.157   1.246   6.098 -0.7155  0.5795  0.3539
  767UNK    C03 6898  28.196   1.442   6.183  0.2133  0.1560  0.3135
  767UNK    C04 6899  28.109   1.469   6.303 -0.3664 -0.0439  0.1333
  767UNK    F05 6900  28.122   1.598   6.345  0.1092  0.1535  0.3536
  767UNK    F06 6901  27.976   1.449   6.279 -0.1895  0.1154 -0.1908
  767UNK    F07 6902  28.145   1.388   6.409 -0.0270  0.3083  0.6182
  767UNK    H08 6903  28.217   1.530   6.123  0.3423 -1.3476 -1.9095
  768UNK    F00 6904  26.147   0.824   5.103 -0.0756  0.3090  0.2866
  768UNK    C01 6905  26.265   0.893   5.075  0.2980 -0.1694 -0.0219
  768UNK    H02 6906  26.305   0.880   4.974  0.4366 -1.2361  0.1706
  768UNK    C03 6907  26.341   0.934   5.178 -0.5477  0.3472  1.0882
  768UNK    C04 6908  26.416   1.061   5.167 -0.1021 -0.4341 -0.4324
  768UNK    F05 6909  26.499   1.060   5.060 -0.2651  0.2174 -0.4465
  768UNK    F06 6910  26.350   1.181   5.159 -0.3474 -0.5772  0.0066
  768UNK    F07 6911  26.508   1.076   5.266  0.1882 -0.2539  0.1338
  768UNK    H08 6912  26.350   0.878   5.270 -0.3008  0.0065  0.8577
  769UNK    F00 6913  26.406   1.798   4.773 -0.9431  0.0443 -0.5017
  769UNK    C01 6914  26.510   1.803   4.693 -0.3421  0.2038  0.8257
  769UNK    H02 6915  26.605   1.825   4.741  0.1206 -1.1337  0.5433
  769UNK    C03 6916  26.488   1.767   4.567 -0.2539 -0.2122 -0.3299
  769UNK    C04 6917  26.410   1.838   4.464  0.5794 -0.0843  0.3438
  769UNK    F05 6918  26.476   1.949   4.416 -0.5219  0.2052  0.4953
  769UNK    F06 6919  26.391   1.760   4.355 -0.2463 -0.2566  0.2493
  769UNK    F07 6920  26.298   1.891   4.511 -0.7684 -0.4429 -0.4003
  769UNK    H08 6921  26.552   1.692   4.523  1.8692  0.9742  0.6604
  770UNK    F00 6922  26.495   4.390   8.061 -0.6168  0.2569 -0.5694
  770UNK    C01 6923  26.452   4.400   7.930  0.4585  0.5861 -0.5577
  770UNK    H02 6924  26.352   4.442   7.921  0.2136  0.2761  0.7142
  770UNK    C03 6925  26.544   4.405   7.833  0.1195 -0.3277 -0.3501
  770UNK    C04 6926  26.535   4.479   7.710  0.4001 -0.7973  0.2599
  770UNK    F05 6927  26.565   4.613   7.716  0.1860 -0.4924 -0.6483
  770UNK    F06 6928  26.614   4.428   7.614  0.0455  0.3823  0.2343
  770UNK    F07 6929  26.406   4.486   7.658 -0.3190  0.4328 -0.1784
  770UNK    H08 6930  26.613   4.322   7.822  0.5041 -0.1081  0.3681
  771UNK    F00 6931  25.707   0.662   7.264 -0.0985  0.1808 -0.0692
  771UNK    C01 6932  25.814   0.591   7.235  0.3133 -0.4423  0.4407
  771UNK    H02 6933  25.881   0.644   7.168  0.7690 -1.7160 -0.1279
  771UNK    C03 6934  25.838   0.494   7.316  0.1008  0.2314 -0.2013
  771UNK    C04 6935  25.971   0.439   7.350  0.7456 -0.8578 -0.0662
  771UNK    F05 6936  26.053   0.425   7.245 -0.3612  0.0391 -0.5369
  771UNK    F06 6937  26.026   0.522   7.439  0.1084 -0.4590 -0.1852
  771UNK    F07 6938  25.963   0.314   7.402 -0.1422 -0.2249  0.4682
  771UNK    H08 6939  25.759   0.471   7.385 -0.6599  2.6258 -0.2587
  772UNK    F00 6940  24.883   1.012   7.113 -0.0926  0.0992  0.3807
  772UNK    C01 6941  24.757   1.027   7.064 -0.3840  0.8431  1.1434
  772UNK    H02 6942  24.689   0.965   7.123 -0.5681 -1.3731 -1.3272
  772UNK    C03 6943  24.712   1.152   7.030  0.2615 -0.2019  0.1343
  772UNK    C04 6944  24.762   1.222   6.914  0.2288  0.3812  0.3448
  772UNK    F05 6945  24.700   1.340   6.893  0.5772  0.4417 -0.2941
  772UNK    F06 6946  24.888   1.269   6.921 -0.0463 -0.2022  0.4590
  772UNK    F07 6947  24.740   1.158   6.799 -0.6147 -0.0502 -0.4702
  772UNK    H08 6948  24.637   1.195   7.094 -0.6393 -2.7056  0.8163
  773UNK    F00 6949  28.825   5.142   7.709 -0.4698  0.2915 -0.3002
  773UNK    C01 6950  28.855   5.039   7.789  0.6822 -0.0954  0.4236
  773UNK    H02 6951  28.958   5.010   7.770  0.2898  1.2783 -4.4693
  773UNK    C03 6952  28.768   4.961   7.855 -0.5420 -0.8961  0.9918
  773UNK    C04 6953  28.693   4.856   7.789  0.0770 -0.0976 -0.3903
  773UNK    F05 6954  28.586   4.813   7.858  0.1586  0.5459 -0.3175
  773UNK    F06 6955  28.638   4.909   7.674 -0.1575 -0.3709  0.0672
  773UNK    F07 6956  28.769   4.749   7.755 -0.0107 -0.1689  0.0678
  773UNK    H08 6957  28.772   4.952   7.962 -0.1680 -1.3193  0.9415
  774UNK    F00 6958  27.829   4.287   7.770 -0.3051  0.1895 -0.4132
  774UNK    C01 6959  27.875   4.266   7.649 -0.1321 -0.2248  0.7218
  774UNK    H02 6960  27.877   4.346   7.575 -0.6670  0.3845  1.3611
  774UNK    C03 6961  27.919   4.143   7.619  0.7702 -0.5038  0.0681
  774UNK    C04 6962  27.969   4.053   7.726  0.3858 -0.9487  0.4705
  774UNK    F05 6963  28.035   3.953   7.672  0.0610 -0.0729  0.3492
  774UNK    F06 6964  28.049   4.106   7.823 -0.4559  0.5104 -0.9593
  774UNK    F07 6965  27.861   4.006   7.790 -0.2681  0.0157 -0.0207
  774UNK    H08 6966  27.919   4.096   7.522 -2.4702  0.8133 -0.6571
  775UNK    F00 6967  29.338   4.319   8.461  0.5368  0.7216  0.4002
  775UNK    C01 6968  29.318   4.449   8.481  0.3142  0.1158 -0.0176
  775UNK    H02 6969  29.221   4.470   8.527  0.9028 -0.5649  1.5684
  775UNK    C03 6970  29.397   4.534   8.416 -0.4297 -0.3821  0.3018
  775UNK    C04 6971  29.352   4.667   8.380 -0.2755  0.2281  0.0959
  775UNK    F05 6972  29.451   4.725   8.312 -0.0243  0.3836  0.2094
  775UNK    F06 6973  29.245   4.650   8.301 -0.6339 -0.4826  0.1058
  775UNK    F07 6974  29.306   4.743   8.482  0.0737  0.0404  0.2641
  775UNK    H08 6975  29.462   4.490   8.342  0.5055  0.6946  0.4599
  776UNK    F00 6976  28.193   2.545   8.684 -0.1723 -0.0259 -0.3184
  776UNK    C01 6977  28.248   2.467   8.589  0.0284 -0.0709 -0.3786
  776UNK    H02 6978  28.237   2.361   8.613 -1.5760  0.0256 -0.6451
  776UNK    C03 6979  28.286   2.517   8.476 -0.9716 -0.4026 -0.0600
  776UNK    C04 6980  28.401   2.609   8.461  0.7498  0.9714 -0.0125
  776UNK    F05 6981  28.519   2.540   8.463  0.5208 -0.2585  0.0095
  776UNK    F06 6982  28.397   2.665   8.336  0.4057 -0.1628 -0.0341
  776UNK    F07 6983  28.409   2.710   8.556 -0.4831 -0.1462 -0.3999
  776UNK    H08 6984  28.224   2.502   8.389 -0.4160  1.3945 -0.7775
  777UNK    F00 6985  26.824   3.793   7.391  0.0239 -0.1513  0.0718
  777UNK    C01 6986  26.853   3.673   7.349 -0.1307  0.3669 -0.3548
  777UNK    H02 6987  26.920   3.678   7.263  1.0514  0.5702  0.5697
  777UNK    C03 6988  26.791   3.569   7.398  0.0304 -0.5778  0.1823
  777UNK    C04 6989  26.849   3.432   7.380 -0.5991 -0.3414 -0.3868
  777UNK    F05 6990  26.955   3.402   7.460  0.1890  0.2895  0.3803
  777UNK    F06 6991  26.754   3.344   7.403  0.0836 -0.1411  0.1527
  777UNK    F07 6992  26.879   3.423   7.249  0.1018 -0.3001  0.0937
  777UNK    H08 6993  26.693   3.568   7.443 -0.0279 -1.2940  0.0402
  778UNK    F00 6994  25.115   2.410   4.864  0.4752 -0.0568  0.8379
  778UNK    C01 6995  25.022   2.402   4.767 -0.0803 -0.9948 -0.0268
  778UNK    H02 6996  25.027   2.479   4.690 -1.6532 -0.1296  0.7189
  778UNK    C03 6997  24.933   2.301   4.772 -0.4554  0.1552  0.6126
  778UNK    C04 6998  24.827   2.292   4.877 -0.0480  1.1812 -0.6340
  778UNK    F05 6999  24.708   2.337   4.836 -0.0032  0.1792  0.1812
  778UNK    F06 7000  24.805   2.164   4.892  0.0829  0.5918 -0.7121
  778UNK    F07 7001  24.865   2.347   4.998 -0.0428  0.3815  0.5935
  778UNK    H08 7002  24.920   2.234   4.689  0.8927  0.6066  0.0200
  779UNK    F00 7003  27.246   0.967   9.789  0.1136 -0.2342 -0.0341
  779UNK    C01 7004  27.253   1.045   9.892  0.0302 -0.4917  0.2940
  779UNK    H02 7005  27.181   1.128   9.895  1.0379  0.3979  0.2864
  779UNK    C03 7006  27.334   1.013   9.992  0.2122 -0.4401  0.1500
  779UNK    C04 7007  27.349   0.887  10.063  0.3299  0.1562  0.1983
  779UNK    F05 7008  27.241   0.813  10.046  0.2144  0.2124 -0.6182
  779UNK    F06 7009  27.456   0.820  10.020  0.2556 -0.0004 -0.3093
  779UNK    F07 7010  27.361   0.909  10.197 -0.1553 -0.3369 -0.1413
  779UNK    H08 7011  27.409   1.085  10.020  1.1874 -1.5920  0.5299
  780UNK    F00 7012  28.057   2.202   8.226 -0.4718  0.4774 -0.0987
  780UNK    C01 7013  28.140   2.091   8.219  0.0631  0.2491  0.3311
  780UNK    H02 7014  28.140   2.046   8.120  0.7453  2.5470 -0.7636
  780UNK    C03 7015  28.190   2.042   8.331  0.1661  0.5641  0.6283
  780UNK    C04 7016  28.326   1.989   8.334 -0.0013  0.0108 -0.6618
  780UNK    F05 7017  28.416   2.090   8.313  0.4844 -0.0755  0.1400
  780UNK    F06 7018  28.349   1.930   8.454 -0.7307 -0.1895  0.8461
  780UNK    F07 7019  28.342   1.899   8.230  0.2384  0.1689  0.0408
  780UNK    H08 7020  28.123   1.980   8.389 -0.0391 -1.0030 -1.2340
  781UNK    F00 7021  24.585   0.451   9.820 -0.3717 -0.0368 -0.3938
  781UNK    C01 7022  24.507   0.386   9.909  0.3413 -0.2016 -0.1614
  781UNK    H02 7023  24.552   0.291   9.936 -1.8037 -1.1286  0.2608
  781UNK    C03 7024  24.385   0.422   9.943  0.4936  0.2573  0.3621
  781UNK    C04 7025  24.336   0.564   9.922 -0.4072  0.1253  0.5076
  781UNK    F05 7026  24.253   0.602  10.020 -0.2316 -0.0008  0.2406
  781UNK    F06 7027  24.435   0.654   9.942 -0.5850  0.5113  0.0165
  781UNK    F07 7028  24.269   0.587   9.802  0.9522  0.1562  0.0449
  781UNK    H08 7029  24.309   0.345   9.935  1.4083 -0.9480  2.9521
  782UNK    F00 7030  24.354   1.027   6.653 -0.3171  0.0259  0.1813
  782UNK    C01 7031  24.401   1.140   6.696 -0.0265 -0.0659 -0.0620
  782UNK    H02 7032  24.510   1.134   6.699 -0.0179  0.5082  1.5058
  782UNK    C03 7033  24.318   1.250   6.714  0.3243  0.2165 -0.8254
  782UNK    C04 7034  24.223   1.262   6.830 -0.0604  0.3094  0.3602
  782UNK    F05 7035  24.290   1.336   6.920 -0.3473 -0.1728 -0.3694
  782UNK    F06 7036  24.119   1.335   6.795  0.5665 -0.3832 -0.5024
  782UNK    F07 7037  24.188   1.151   6.891 -0.2429 -0.0286 -0.0588
  782UNK    H08 7038  24.268   1.291   6.628 -1.0912 -0.5998 -0.4065
  783UNK    F00 7039  26.496   2.906  10.146  0.2556  0.1682 -0.2103
  783UNK    C01 7040  26.492   2.818  10.245  0.8191  0.2615  1.0020
  783UNK    H02 7041  26.510   2.867  10.341  1.8555 -1.6072  1.7781
  783UNK    C03 7042  26.432   2.704  10.225 -0.1777 -0.0444 -0.6103
  783UNK    C04 7043  26.300   2.690  10.163  0.7273  0.5054 -0.8377
  783UNK    F05 7044  26.248   2.564  10.170  0.5261  0.1612 -0.3630
  783UNK    F06 7045  26.198   2.776  10.206 -0.7006  0.0799 -0.8922
  783UNK    F07 7046  26.316   2.705  10.029 -0.4598 -0.0276  0.3024
  783UNK    H08 7047  26.443   2.626  10.300  0.6350 -0.0590 -0.7349
  784UNK    F00 7048  27.736   2.349   5.920 -0.0226  0.2256  0.0918
  784UNK    C01 7049  27.702   2.364   6.050  0.3695  0.1888 -0.3767
  784UNK    H02 7050  27.707   2.472   6.061  0.0555  0.2429 -0.7596
  784UNK    C03 7051  27.598   2.288   6.097 -0.1588  0.2741 -0.0404
  784UNK    C04 7052  27.624   2.151   6.156  1.0190 -0.1029  0.1150
  784UNK    F05 7053  27.696   2.165   6.269  0.5741  0.2358 -0.0861
  784UNK    F06 7054  27.505   2.098   6.196 -0.0825  0.1208 -0.7401
  784UNK    F07 7055  27.687   2.081   6.055 -0.0161 -0.4395 -0.2713
  784UNK    H08 7056  27.502   2.298   6.049 -0.8922  0.5993  1.4491
  785UNK    F00 7057  28.633   5.102   7.297  0.5662  0.1388  0.1359
  785UNK    C01 7058  28.558   5.157   7.395 -0.8113  0.4458 -0.7979
  785UNK    H02 7059  28.564   5.265   7.406 -0.9409  0.2169  1.7165
  785UNK    C03 7060  28.481   5.073   7.470  0.1312 -0.1211  0.0983
  785UNK    C04 7061  28.368   5.124   7.549  0.3331  0.3009  0.2525
  785UNK    F05 7062  28.253   5.151   7.474  0.2222 -0.8697  0.0979
  785UNK    F06 7063  28.311   5.039   7.639  0.0604  0.0191 -0.3439
  785UNK    F07 7064  28.407   5.234   7.620  0.3790 -0.1087  0.1730
  785UNK    H08 7065  28.465   4.978   7.421  2.1128 -0.9236  0.9704
  786UNK    F00 7066  23.457   1.292   7.285 -0.0598 -0.5915 -0.3049
  786UNK    C01 7067  23.436   1.160   7.313 -0.1288 -0.2459  1.0205
  786UNK    H02 7068  23.450   1.103   7.221  0.5109 -1.7574  2.0323
  786UNK    C03 7069  23.477   1.114   7.428  0.7195 -0.4124 -0.2797
  786UNK    C04 7070  23.472   0.977   7.476  0.2183  0.7336 -0.3789
  786UNK    F05 7071  23.558   0.956   7.582 -0.1004 -0.2848 -0.5988
  786UNK    F06 7072  23.350   0.940   7.510  0.9697  0.3096  0.2093
  786UNK    F07 7073  23.518   0.889   7.383  0.2165  0.1146  0.0706
  786UNK    H08 7074  23.544   1.173   7.489  0.1140  0.5170 -0.5103
  787UNK    F00 7075  25.210   5.171   6.406  0.4250  0.2620  0.1545
  787UNK    C01 7076  25.171   5.244   6.509  0.0509 -0.5214 -0.4117
  787UNK    H02 7077  25.137   5.344   6.481  2.1396  0.1294 -0.7041
  787UNK    C03 7078  25.235   5.221   6.624  0.7140  0.1258  0.7018
  787UNK    C04 7079  25.357   5.296   6.649 -0.0488 -0.6799  0.2080
  787UNK    F05 7080  25.433   5.204   6.715  0.2761 -0.6613 -0.1948
  787UNK    F06 7081  25.413   5.332   6.527 -0.1756  0.2181  0.0011
  787UNK    F07 7082  25.319   5.402   6.719  0.6088  0.0781  0.4099
  787UNK    H08 7083  25.170   5.214   6.710 -0.9364  0.6142 -0.4682
  788UNK    F00 7084  28.232   3.711  10.814  0.1545 -0.0539 -0.0494
  788UNK    C01 7085  28.137   3.614  10.804 -0.8251  0.2921 -0.5859
  788UNK    H02 7086  28.065   3.625  10.886 -1.9542  0.3998 -1.5776
  788UNK    C03 7087  28.107   3.555  10.688 -0.2648 -0.0357 -0.1677
  788UNK    C04 7088  28.201   3.451  10.644  0.3150 -0.1738  0.4999
  788UNK    F05 7089  28.335   3.481  10.654 -0.2112  0.5682  0.1042
  788UNK    F06 7090  28.176   3.338  10.711  0.0727 -0.6196  0.1947
  788UNK    F07 7091  28.172   3.420  10.516  0.1366  0.1928 -0.9163
  788UNK    H08 7092  28.077   3.615  10.603 -0.9284 -1.6775 -1.0949
  789UNK    F00 7093  26.998   1.381   6.749 -0.6344  0.3735 -0.5140
  789UNK    C01 7094  27.053   1.357   6.870 -0.1623 -0.8630 -0.0907
  789UNK    H02 7095  27.127   1.430   6.903  1.1914 -1.9374 -0.7400
  789UNK    C03 7096  26.974   1.288   6.952  0.1675 -0.1236 -0.7115
  789UNK    C04 7097  26.946   1.146   6.945 -0.3841 -0.4521 -0.0989
  789UNK    F05 7098  26.903   1.102   6.820 -0.1947 -0.1089  0.2307
  789UNK    F06 7099  27.065   1.076   6.955  0.9351  0.1136  0.3476
  789UNK    F07 7100  26.855   1.120   7.042 -0.0416  0.0902  0.1228
  789UNK    H08 7101  26.925   1.342   7.032 -1.2931  0.2792 -1.8631
  790UNK    F00 7102  27.602   0.410   8.025 -0.1682  0.4418  0.2572
  790UNK    C01 7103  27.472   0.387   8.019  0.1571 -0.0900 -0.6442
  790UNK    H02 7104  27.440   0.358   8.119 -1.2766 -0.6646 -1.2625
  790UNK    C03 7105  27.440   0.330   7.903  0.4098  0.0935  0.2488
  790UNK    C04 7106  27.308   0.340   7.840 -0.0759  0.3679 -0.3446
  790UNK    F05 7107  27.209   0.322   7.929 -0.5017 -0.0382 -0.2421
  790UNK    F06 7108  27.273   0.462   7.786 -0.3032  0.2125 -0.1742
  790UNK    F07 7109  27.299   0.261   7.726 -0.2721 -0.3056  0.1421
  790UNK    H08 7110  27.505   0.259   7.855 -0.0054  1.0935 -1.8996
  791UNK    F00 7111  25.873   3.888   5.494 -0.0517  0.1123 -0.2581
  791UNK    C01 7112  25.909   4.017   5.504  0.1081 -0.6314  0.0028
  791UNK    H02 7113  25.846   4.068   5.577  0.0871  0.1296 -0.5489
  791UNK    C03 7114  26.033   4.041   5.476  0.0492  0.4642 -0.1597
  791UNK    C04 7115  26.113   4.150   5.527  0.5536 -0.6713  0.0209
  791UNK    F05 7116  26.195   4.197   5.429 -0.4670 -0.4319  0.2684
  791UNK    F06 7117  26.042   4.254   5.571  0.3828 -0.5118 -0.2467
  791UNK    F07 7118  26.188   4.104   5.629  0.2702 -0.5724  0.3461
  791UNK    H08 7119  26.095   3.962   5.437 -0.3095 -0.1099  0.4180
  792UNK    F00 7120  25.494   3.986   3.941  0.3486  0.0349 -0.2249
  792UNK    C01 7121  25.458   4.024   3.820 -0.2020 -0.2301 -0.3397
  792UNK    H02 7122  25.403   3.949   3.762 -1.3043 -0.3113  0.8049
  792UNK    C03 7123  25.529   4.122   3.771 -0.7791  0.2175 -0.0695
  792UNK    C04 7124  25.661   4.114   3.708  0.2504 -0.7375  0.1363
  792UNK    F05 7125  25.757   4.073   3.794  0.0776 -0.6281  0.0819
  792UNK    F06 7126  25.657   4.024   3.602 -0.6193  0.2110 -0.5562
  792UNK    F07 7127  25.694   4.239   3.665  0.6587  0.6962  0.1065
  792UNK    H08 7128  25.481   4.216   3.747  0.0814  0.5694 -0.4390
  793UNK    F00 7129  27.448   3.701   7.847 -0.1348  0.1925  0.3991
  793UNK    C01 7130  27.399   3.794   7.927 -0.4340  0.5584 -0.2220
  793UNK    H02 7131  27.387   3.765   8.031  2.0601  0.3111  0.0212
  793UNK    C03 7132  27.401   3.916   7.885  0.1199 -0.1508  0.8282
  793UNK    C04 7133  27.286   3.974   7.807  0.1080  0.4223  0.1774
  793UNK    F05 7134  27.167   3.985   7.869 -0.2608  0.0776  0.1720
  793UNK    F06 7135  27.324   4.092   7.760 -0.4785 -0.1906 -0.2792
  793UNK    F07 7136  27.271   3.901   7.694  0.0112  0.1224 -0.3126
  793UNK    H08 7137  27.470   3.988   7.925  0.4626  0.8912 -1.5387
  794UNK    F00 7138  24.033   2.354   7.498 -0.0755  0.3166  0.1865
  794UNK    C01 7139  24.085   2.450   7.409  0.6584 -0.2573 -0.6813
  794UNK    H02 7140  24.031   2.443   7.315  2.2597 -1.0238 -1.5585
  794UNK    C03 7141  24.166   2.533   7.470  0.9650  0.3638 -0.3532
  794UNK    C04 7142  24.303   2.498   7.508 -0.0675  0.5360  0.0818
  794UNK    F05 7143  24.357   2.591   7.593  0.2641  0.2833 -0.5253
  794UNK    F06 7144  24.322   2.370   7.556  0.2469 -0.2505 -0.0328
  794UNK    F07 7145  24.383   2.517   7.397 -0.4380 -0.0625  0.0705
  794UNK    H08 7146  24.143   2.638   7.480 -1.6133  0.0212 -2.2908
  795UNK    F00 7147  29.169   0.619   8.562 -0.0470  0.0269  0.2515
  795UNK    C01 7148  29.265   0.525   8.575 -0.3903 -0.7266  0.2172
  795UNK    H02 7149  29.332   0.537   8.489 -1.0882  1.5599 -0.0411
  795UNK    C03 7150  29.286   0.479   8.697 -0.3308 -0.2583  0.2285
  795UNK    C04 7151  29.420   0.427   8.739  0.4976 -0.5339  0.2042
  795UNK    F05 7152  29.408   0.336   8.838  0.2848  0.0684  0.0599
  795UNK    F06 7153  29.490   0.361   8.644 -0.1151  0.1853 -0.4931
  795UNK    F07 7154  29.503   0.533   8.769  0.7417 -0.5576 -0.3931
  795UNK    H08 7155  29.229   0.524   8.777 -0.8834 -1.6071  0.6011
  796UNK    F00 7156  26.686   0.342  10.183  0.0882 -0.3037 -0.1386
  796UNK    C01 7157  26.650   0.300  10.063  0.2571 -0.1054 -0.1739
  796UNK    H02 7158  26.721   0.230  10.018  0.5583 -0.9652  1.5745
  796UNK    C03 7159  26.557   0.372   9.999  0.1977 -0.1493  0.1508
  796UNK    C04 7160  26.469   0.319   9.892 -0.6564  0.3755  0.7249
  796UNK    F05 7161  26.359   0.254   9.944  0.1447 -0.1031  0.2566
  796UNK    F06 7162  26.415   0.418   9.814 -0.0788 -0.3700  0.2622
  796UNK    F07 7163  26.551   0.239   9.826  0.1949  0.3951  0.4692
  796UNK    H08 7164  26.553   0.477  10.027  2.0479  0.0777 -0.3699
  797UNK    F00 7165  29.007   0.362   7.859  0.4887  0.4602  0.2977
  797UNK    C01 7166  28.897   0.369   7.786 -0.2553 -0.5467  1.1269
  797UNK    H02 7167  28.894   0.287   7.715 -0.7761  0.5254 -0.1229
  797UNK    C03 7168  28.810   0.468   7.783  0.0926  0.2054 -0.3267
  797UNK    C04 7169  28.678   0.465   7.723  0.2764 -0.0976 -0.4369
  797UNK    F05 7170  28.593   0.394   7.804 -0.2825 -0.0782  0.3046
  797UNK    F06 7171  28.619   0.582   7.708  0.5571  0.0560 -0.6885
  797UNK    F07 7172  28.680   0.399   7.602 -0.4801 -0.3004 -0.3947
  797UNK    H08 7173  28.827   0.557   7.842 -0.2349  1.7056 -2.4569
  798UNK    F00 7174  28.827   3.089   7.393  0.0353 -0.0697  0.1573
  798UNK    C01 7175  28.764   3.072   7.513  0.5898 -0.5884  0.1829
  798UNK    H02 7176  28.824   3.067   7.603 -1.5167 -1.5541  1.5813
  798UNK    C03 7177  28.632   3.098   7.518  0.3606  0.4269  0.3842
  798UNK    C04 7178  28.557   3.158   7.633  0.1538  0.3001  0.0686
  798UNK    F05 7179  28.428   3.130   7.615 -0.0426 -0.6039  0.0197
  798UNK    F06 7180  28.594   3.127   7.759  0.1500 -0.0863 -0.0657
  798UNK    F07 7181  28.576   3.288   7.602  0.6223 -0.6533  0.0825
  798UNK    H08 7182  28.582   3.117   7.424  2.1691  0.6222 -0.5678
  799UNK    F00 7183  27.775   4.435   4.297 -0.2253 -0.5141 -0.3203
  799UNK    C01 7184  27.807   4.320   4.356 -0.4151  0.0593 -0.2941
  799UNK    H02 7185  27.893   4.268   4.313 -1.0862 -1.2198 -0.0920
  799UNK    C03 7186  27.709   4.264   4.431  0.5020 -0.3981 -0.0054
  799UNK    C04 7187  27.732   4.154   4.527 -0.3073  0.4260  0.3037
  799UNK    F05 7188  27.822   4.079   4.463 -0.1428 -0.3237 -0.0833
  799UNK    F06 7189  27.800   4.170   4.649  0.2423  0.2102 -0.0474
  799UNK    F07 7190  27.626   4.075   4.545 -0.6364 -0.5538  0.6948
  799UNK    H08 7191  27.612   4.261   4.384  1.2842 -0.9038 -1.6429
  800UNK    F00 7192  29.041   3.116   5.440 -0.0447 -0.3764 -0.8756
  800UNK    C01 7193  29.027   3.200   5.548 -0.8487 -0.1462  0.0237
  800UNK    H02 7194  28.922   3.214   5.571 -0.4027 -2.3867  3.7336
  800UNK    C03 7195  29.124   3.216   5.638  0.2983  0.1619 -0.3448
  800UNK    C04 7196  29.202   3.102   5.696  0.0544 -0.4216  0.0112
  800UNK    F05 7197  29.298   3.054   5.617 -0.2279 -0.1533  0.0351
  800UNK    F06 7198  29.250   3.136   5.819  0.0293 -0.3894  0.3532
  800UNK    F07 7199  29.121   2.998   5.720  0.0762  0.2125  0.3401
  800UNK    H08 7200  29.187   3.299   5.613  0.7599 -0.9533 -3.1312
  801UNK    F00 7201  28.270   4.153   5.930 -0.0332 -0.1348  0.1505
  801UNK    C01 7202  28.223   4.247   6.009  0.0355 -0.6446 -0.0385
  801UNK    H02 7203  28.116   4.235   6.027 -0.1362  0.3833 -0.2931
  801UNK    C03 7204  28.291   4.360   5.995 -0.2739  0.2132  0.5020
  801UNK    C04 7205  28.295   4.469   6.096 -0.0813  0.9230 -0.1990
  801UNK    F05 7206  28.369   4.573   6.056 -0.4127 -0.1539 -0.2842
  801UNK    F06 7207  28.163   4.499   6.117 -0.1407  0.3588  0.0931
  801UNK    F07 7208  28.352   4.425   6.213 -0.5822 -0.1344  0.9325
  801UNK    H08 7209  28.373   4.368   5.926 -1.2671 -0.7022 -0.8148
  802UNK    F00 7210  28.045   3.358   3.642  0.4482 -0.1322  0.4516
  802UNK    C01 7211  28.141   3.442   3.609 -0.3218  0.1645 -0.0138
  802UNK    H02 7212  28.128   3.537   3.661 -1.9560 -0.6391  1.0831
  802UNK    C03 7213  28.204   3.414   3.495 -0.1591  0.0438  1.0723
  802UNK    C04 7214  28.281   3.510   3.413 -0.6788  1.0714  0.3084
  802UNK    F05 7215  28.411   3.542   3.446  0.3976 -0.0463 -0.4499
  802UNK    F06 7216  28.270   3.457   3.284  0.7669 -0.6673  0.1665
  802UNK    F07 7217  28.227   3.631   3.417  0.2120  0.0106  0.3567
  802UNK    H08 7218  28.236   3.311   3.490 -1.0291 -0.3833  3.5811
  803UNK    F00 7219  23.659   2.588   8.893  0.1047 -0.6693 -0.2177
  803UNK    C01 7220  23.794   2.588   8.930  0.5565  0.3464  0.1243
  803UNK    H02 7221  23.862   2.657   8.881 -0.1699 -1.2578 -3.3412
  803UNK    C03 7222  23.824   2.499   9.024  0.4721  0.8703  0.1928
  803UNK    C04 7223  23.895   2.372   8.991  0.3934 -0.1993 -0.6595
  803UNK    F05 7224  23.876   2.273   9.078 -0.1720 -0.2409  0.2778
  803UNK    F06 7225  23.856   2.315   8.874  0.1544  0.7820 -0.2324
  803UNK    F07 7226  24.031   2.386   8.980 -0.1074 -0.0698  0.6474
  803UNK    H08 7227  23.744   2.474   9.092  2.6575 -0.1434  2.4450
  804UNK    F00 7228  25.192   4.779   8.446  0.6352  0.0460  0.0485
  804UNK    C01 7229  25.196   4.645   8.459  0.4215  0.5524 -0.6043
  804UNK    H02 7230  25.107   4.605   8.411 -1.7895  1.4227  2.6332
  804UNK    C03 7231  25.311   4.590   8.492 -0.3836  0.1133 -0.0399
  804UNK    C04 7232  25.387   4.604   8.612  0.1303  0.0616 -0.2494
  804UNK    F05 7233  25.521   4.603   8.587  0.3320  0.0824  0.3857
  804UNK    F06 7234  25.368   4.731   8.655  0.3563 -0.2966  0.5466
  804UNK    F07 7235  25.343   4.504   8.699 -0.4292 -0.0196 -0.1424
  804UNK    H08 7236  25.367   4.538   8.416  0.8329 -0.8491  1.5176
  805UNK    F00 7237  25.357   0.534   3.769 -0.5389  0.1597 -0.2472
  805UNK    C01 7238  25.305   0.648   3.722 -0.1014 -0.4474 -0.5275
  805UNK    H02 7239  25.207   0.620   3.683  0.0356 -0.9568 -0.5212
  805UNK    C03 7240  25.383   0.758   3.709 -0.3810  0.3387 -1.1880
  805UNK    C04 7241  25.320   0.893   3.686  0.8701 -0.8257  0.6220
  805UNK    F05 7242  25.203   0.879   3.618  0.1802  0.1384  0.4863
  805UNK    F06 7243  25.293   0.949   3.800  0.1502  0.2279 -0.0691
  805UNK    F07 7244  25.405   0.968   3.611 -0.3604 -0.3441 -0.2040
  805UNK    H08 7245  25.487   0.757   3.739 -0.6540 -0.6303 -0.2293
  806UNK    F00 7246  26.736   0.931   9.831  0.1710  0.4949 -0.6001
  806UNK    C01 7247  26.654   1.006   9.759  0.0908 -0.2144 -0.1034
  806UNK    H02 7248  26.665   1.113   9.775  1.4024 -0.8448  3.6302
  806UNK    C03 7249  26.608   0.952   9.645 -0.1535 -0.1429  0.3516
  806UNK    C04 7250  26.545   1.034   9.540  0.2300  0.0583 -0.8099
  806UNK    F05 7251  26.496   0.962   9.438 -0.0467 -0.5066  0.2193
  806UNK    F06 7252  26.456   1.125   9.580  0.2142 -0.2429  0.4310
  806UNK    F07 7253  26.644   1.106   9.480  1.1113  0.4169 -0.1486
  806UNK    H08 7254  26.653   0.861   9.609 -1.5355 -1.5295  2.0506
  807UNK    F00 7255  27.595   3.432   6.776  0.0636 -0.4539 -0.1556
  807UNK    C01 7256  27.652   3.339   6.850  0.4679 -0.1408  0.1162
  807UNK    H02 7257  27.696   3.390   6.936 -1.4845  0.7536  0.6189
  807UNK    C03 7258  27.709   3.243   6.775 -0.2198 -0.4034  0.1671
  807UNK    C04 7259  27.744   3.122   6.849 -0.8208 -0.2489 -0.6859
  807UNK    F05 7260  27.655   3.067   6.933 -0.1844 -0.5571 -0.5314
  807UNK    F06 7261  27.772   3.033   6.750  0.0833 -0.3088 -0.1141
  807UNK    F07 7262  27.865   3.125   6.913  0.1289 -0.2150 -0.3203
  807UNK    H08 7263  27.680   3.232   6.672 -0.2532 -0.0634  0.1392
  808UNK    F00 7264  24.587   5.221   7.440 -1.0600  0.1865 -0.2183
  808UNK    C01 7265  24.614   5.106   7.370 -0.8118 -0.8223 -0.4346
  808UNK    H02 7266  24.578   5.123   7.268 -0.4113 -0.4798 -0.5228
  808UNK    C03 7267  24.606   4.993   7.439  0.4988 -0.2079  0.2942
  808UNK    C04 7268  24.680   4.874   7.391 -0.6444  0.8127 -0.5015
  808UNK    F05 7269  24.694   4.870   7.257 -0.2995 -0.1690 -0.2286
  808UNK    F06 7270  24.808   4.865   7.442  0.1892 -0.2559  0.2831
  808UNK    F07 7271  24.617   4.762   7.437  0.0225  0.0734 -0.7338
  808UNK    H08 7272  24.507   4.977   7.480  0.5312 -2.9479 -0.6091
  809UNK    F00 7273  28.579   0.786   7.393  0.3028 -0.0790  0.2334
  809UNK    C01 7274  28.681   0.758   7.310 -0.4990  0.2221 -0.1065
  809UNK    H02 7275  28.648   0.726   7.211  1.0130 -0.3212 -0.4490
  809UNK    C03 7276  28.788   0.719   7.375 -0.7752  0.1968 -0.5914
  809UNK    C04 7277  28.926   0.762   7.345  0.1815  0.8491  0.5245
  809UNK    F05 7278  28.965   0.728   7.221 -0.2470  0.1795 -0.6665
  809UNK    F06 7279  28.930   0.895   7.335 -0.1982 -0.2082 -0.1528
  809UNK    F07 7280  29.022   0.718   7.433 -0.4946  0.0379  0.4946
  809UNK    H08 7281  28.794   0.649   7.457  0.3392  1.8042  0.7315
  810UNK    F00 7282  25.770   0.267   8.199  0.7007 -0.6314  0.4019
  810UNK    C01 7283  25.751   0.385   8.264  0.2100  0.4805  0.6381
  810UNK    H02 7284  25.703   0.450   8.190  0.4751  1.0292  0.9388
  810UNK    C03 7285  25.834   0.420   8.367 -0.2995 -0.4238 -0.5698
  810UNK    C04 7286  25.955   0.504   8.373 -0.0131  0.2596 -0.0317
  810UNK    F05 7287  25.929   0.628   8.419 -0.4626  0.0407  0.1728
  810UNK    F06 7288  26.048   0.455   8.455 -0.3490  0.2014  0.9268
  810UNK    F07 7289  26.021   0.499   8.257  0.4106 -0.3407  1.0935
  810UNK    H08 7290  25.825   0.362   8.458 -0.0462  1.8332  0.9402
  811UNK    F00 7291  27.819   2.209   5.615 -0.1868  0.6103 -0.1491
  811UNK    C01 7292  27.688   2.190   5.621 -0.6413  0.1365  0.8598
  811UNK    H02 7293  27.632   2.263   5.563  0.3208 -0.6116 -1.0721
  811UNK    C03 7294  27.649   2.067   5.665 -0.7369 -0.6334  0.9133
  811UNK    C04 7295  27.525   2.013   5.611 -0.5153  0.1519  0.5169
  811UNK    F05 7296  27.544   1.942   5.499  0.6188  0.4451  0.4456
  811UNK    F06 7297  27.476   1.927   5.704  0.5935  0.0632 -0.4699
  811UNK    F07 7298  27.435   2.106   5.573  0.0043 -0.7091 -0.3811
  811UNK    H08 7299  27.669   2.038   5.768  0.0380 -0.9769  0.6714
  812UNK    F00 7300  27.651   0.803   5.631  0.0410  0.3756 -0.2218
  812UNK    C01 7301  27.748   0.870   5.690 -0.0470  0.2920  0.2163
  812UNK    H02 7302  27.833   0.811   5.726 -0.8147 -0.4217  0.8851
  812UNK    C03 7303  27.755   1.000   5.660  0.4637 -0.2941  1.1376
  812UNK    C04 7304  27.678   1.114   5.718  0.4986  0.9497  0.4395
  812UNK    F05 7305  27.693   1.225   5.638  0.4398  0.2776  0.5311
  812UNK    F06 7306  27.547   1.073   5.738  0.0337 -0.5656  0.5825
  812UNK    F07 7307  27.733   1.148   5.835  0.0002 -0.1865  0.4045
  812UNK    H08 7308  27.793   1.029   5.563 -1.0881  2.0886  1.1819
  813UNK    F00 7309  23.065   1.438   9.312 -0.2915  0.4990 -0.2023
  813UNK    C01 7310  23.155   1.339   9.304  0.0883 -0.0454  0.3405
  813UNK    H02 7311  23.125   1.257   9.240 -0.5634  0.3199  0.1775
  813UNK    C03 7312  23.277   1.362   9.360  0.4139 -1.0495 -0.3986
  813UNK    C04 7313  23.302   1.336   9.501  0.0170 -0.3701  0.8322
  813UNK    F05 7314  23.188   1.297   9.565 -0.4351 -0.1872 -0.2711
  813UNK    F06 7315  23.389   1.241   9.530  0.1430  0.5240  0.0355
  813UNK    F07 7316  23.346   1.446   9.567  0.1685  0.4240 -0.0306
  813UNK    H08 7317  23.355   1.423   9.317 -0.3128  0.4398  0.3737
  814UNK    F00 7318  27.522   1.495   7.797  0.1722 -0.0815  0.1832
  814UNK    C01 7319  27.441   1.602   7.807  0.1756 -0.1661  0.6966
  814UNK    H02 7320  27.497   1.696   7.810 -0.1323  0.0814 -0.7449
  814UNK    C03 7321  27.313   1.577   7.817  0.2658 -0.6879 -0.1442
  814UNK    C04 7322  27.205   1.648   7.752  0.4582  0.8340  0.0511
  814UNK    F05 7323  27.079   1.612   7.787  0.2506  0.1376 -0.0121
  814UNK    F06 7324  27.219   1.777   7.781 -0.2591  0.1952  0.4363
  814UNK    F07 7325  27.218   1.626   7.619  0.1509  0.1071  0.8555
  814UNK    H08 7326  27.283   1.490   7.874 -1.4460 -0.7331 -1.0754
  815UNK    F00 7327  28.319   4.677   6.764  0.0012 -0.1978  0.2506
  815UNK    C01 7328  28.199   4.708   6.722  0.1966 -0.3144  0.2256
  815UNK    H02 7329  28.161   4.809   6.736 -2.2600 -1.2313  0.4489
  815UNK    C03 7330  28.147   4.613   6.643  0.6918  0.4382 -0.1781
  815UNK    C04 7331  28.059   4.643   6.535 -0.1736  0.1988  0.0081
  815UNK    F05 7332  28.110   4.722   6.440 -0.2406 -0.1552  0.2683
  815UNK    F06 7333  28.024   4.525   6.467 -0.1255 -0.3763 -0.7245
  815UNK    F07 7334  27.943   4.697   6.574  0.2379 -0.2588 -0.3670
  815UNK    H08 7335  28.213   4.530   6.622 -1.1770 -0.9013 -0.9092
  816UNK    F00 7336  25.805   3.830   6.835  0.3809  0.2111  0.7658
  816UNK    C01 7337  25.736   3.730   6.889  0.0441  0.7997  0.5144
  816UNK    H02 7338  25.786   3.638   6.860 -0.1196  0.3701  1.5661
  816UNK    C03 7339  25.645   3.745   6.981 -0.4010  0.2873 -0.1533
  816UNK    C04 7340  25.616   3.642   7.079  0.6102  0.7419 -0.1039
  816UNK    F05 7341  25.548   3.681   7.188  0.1176 -0.2167  0.2751
  816UNK    F06 7342  25.556   3.531   7.027  0.1865 -0.3996 -0.6725
  816UNK    F07 7343  25.730   3.589   7.134  0.4462  0.8061 -0.1206
  816UNK    H08 7344  25.603   3.844   6.993  0.4189  0.5785  0.4284
  817UNK    F00 7345  25.704   4.994   4.853 -0.0850  0.5822  0.3002
  817UNK    C01 7346  25.840   5.003   4.863  0.5506 -0.4487  0.9441
  817UNK    H02 7347  25.889   5.067   4.789  0.6904 -2.0591 -0.3849
  817UNK    C03 7348  25.900   4.956   4.971 -0.2661 -0.3661  0.5707
  817UNK    C04 7349  26.049   4.960   4.992 -0.4631 -0.6122 -0.2180
  817UNK    F05 7350  26.093   4.852   5.061 -0.1934  0.0030  0.5180
  817UNK    F06 7351  26.116   4.972   4.876 -0.5447 -0.0377  0.1726
  817UNK    F07 7352  26.081   5.064   5.072 -0.3093  0.7384  0.1621
  817UNK    H08 7353  25.841   4.937   5.059  0.9355  0.6039  1.6116
  818UNK    F00 7354  27.825   0.682   4.734 -0.0624  0.5283  0.7337
  818UNK    C01 7355  27.937   0.625   4.681  0.1821 -1.0802 -0.2019
  818UNK    H02 7356  27.965   0.687   4.595  0.3814 -0.0881  0.5724
  818UNK    C03 7357  27.939   0.493   4.676  0.2178  0.2432 -0.7725
  818UNK    C04 7358  27.889   0.391   4.778  0.1979  0.0803  0.0516
  818UNK    F05 7359  27.910   0.430   4.904  0.4685 -0.0419 -0.5546
  818UNK    F06 7360  27.752   0.376   4.769 -0.1626  0.0169 -0.0844
  818UNK    F07 7361  27.940   0.270   4.763  0.0747 -0.4186  0.2672
  818UNK    H08 7362  27.958   0.445   4.581  2.5113  0.0599 -0.2470
  819UNK    F00 7363  28.186   4.740   7.703  0.0109  0.4319  0.5231
  819UNK    C01 7364  28.070   4.797   7.675 -0.8362  0.3239 -0.3767
  819UNK    H02 7365  28.015   4.827   7.765  0.1633  3.2879 -0.6980
  819UNK    C03 7366  28.012   4.783   7.556 -0.2287 -0.4573  0.4293
  819UNK    C04 7367  27.938   4.890   7.480  0.7445  0.8283 -0.3380
  819UNK    F05 7368  27.884   4.976   7.572  0.7736  0.6000 -0.2927
  819UNK    F06 7369  28.023   4.971   7.409 -0.1395 -0.0734  0.0626
  819UNK    F07 7370  27.841   4.834   7.398  0.2278  0.1825  0.1565
  819UNK    H08 7371  28.072   4.727   7.485  0.5409 -1.8897  2.1666
  820UNK    F00 7372  24.717   3.982   7.394  0.7080  0.4298  0.4605
  820UNK    C01 7373  24.686   3.869   7.323 -0.2676 -0.1725  1.4212
  820UNK    H02 7374  24.584   3.838   7.348  0.2099 -2.5404  0.5427
  820UNK    C03 7375  24.778   3.811   7.249  0.1303 -0.2357  0.1204
  820UNK    C04 7376  24.839   3.686   7.286  0.1491 -0.2858  0.4068
  820UNK    F05 7377  24.769   3.593   7.230  0.2603 -0.6062  0.2383
  820UNK    F06 7378  24.970   3.676   7.263 -0.3605 -0.0762  0.0832
  820UNK    F07 7379  24.828   3.666   7.420 -0.1578 -0.1233 -0.3924
  820UNK    H08 7380  24.845   3.876   7.194 -0.1024  2.2131  2.5885
  821UNK    F00 7381  26.614   3.192   6.240  0.1695  0.5821 -0.4157
  821UNK    C01 7382  26.536   3.088   6.276 -0.4655 -0.2445 -0.0034
  821UNK    H02 7383  26.434   3.103   6.241 -0.2914  0.5501 -0.1900
  821UNK    C03 7384  26.555   3.022   6.392 -0.8222  0.2457 -0.1272
  821UNK    C04 7385  26.516   3.078   6.520 -1.1104 -0.6396 -0.8850
  821UNK    F05 7386  26.543   3.211   6.530  0.3200  0.1740  0.8985
  821UNK    F06 7387  26.386   3.062   6.537 -0.8281 -0.4436 -0.2972
  821UNK    F07 7388  26.576   3.010   6.622 -0.2764 -0.1876 -0.5342
  821UNK    H08 7389  26.558   2.914   6.404  1.1973 -0.1825 -3.7964
  822UNK    F00 7390  28.594   2.434   6.877 -0.0155 -0.2739  0.4465
  822UNK    C01 7391  28.464   2.436   6.845 -0.2733 -0.0381 -0.3514
  822UNK    H02 7392  28.442   2.456   6.740  2.4160 -0.1401 -0.9794
  822UNK    C03 7393  28.390   2.472   6.950 -0.1998 -1.0874 -0.1864
  822UNK    C04 7394  28.358   2.612   6.984  0.5463  0.1496 -0.3906
  822UNK    F05 7395  28.456   2.700   6.989  0.5187  0.0108  0.0656
  822UNK    F06 7396  28.263   2.666   6.914  0.6070 -0.0806 -0.4897
  822UNK    F07 7397  28.297   2.608   7.103  0.8954 -0.3483  0.2202
  822UNK    H08 7398  28.350   2.397   7.016  1.2073 -1.8238 -0.1519
  823UNK    F00 7399  27.275   1.240   6.694  0.5784 -0.1616  0.4979
  823UNK    C01 7400  27.374   1.298   6.638 -0.3700  0.2928  0.0999
  823UNK    H02 7401  27.453   1.226   6.618 -0.6542 -0.2699  0.9849
  823UNK    C03 7402  27.392   1.426   6.666 -0.4266 -0.0542 -0.1446
  823UNK    C04 7403  27.488   1.472   6.770 -0.0250  0.2200 -0.1920
  823UNK    F05 7404  27.492   1.605   6.790 -0.0011  0.2578  0.1554
  823UNK    F06 7405  27.465   1.411   6.891  0.2344 -0.2156  0.7229
  823UNK    F07 7406  27.616   1.432   6.737 -0.1123  0.0942 -0.2067
  823UNK    H08 7407  27.366   1.500   6.592 -0.2765 -0.4777 -0.6246
  824UNK    F00 7408  26.511   2.231   6.879  0.1269  0.0467 -0.2558
  824UNK    C01 7409  26.607   2.139   6.884  0.2008 -0.3784 -1.0622
  824UNK    H02 7410  26.649   2.113   6.787 -3.4722 -0.2226 -2.7865
  824UNK    C03 7411  26.605   2.059   6.993 -0.0593 -0.2303  0.0834
  824UNK    C04 7412  26.703   1.954   7.032 -0.3079  0.7175  0.5875
  824UNK    F05 7413  26.650   1.873   7.123  0.0380  0.6089  0.3507
  824UNK    F06 7414  26.731   1.875   6.926  0.0502  0.1353  0.1821
  824UNK    F07 7415  26.823   2.002   7.081  0.4022  0.9183  0.4481
  824UNK    H08 7416  26.507   2.018   7.013 -1.1560  2.0563 -0.3925
  825UNK    F00 7417  26.137   0.436   3.494 -0.0955  0.1731 -0.1636
  825UNK    C01 7418  26.140   0.437   3.633  0.1965 -0.0570 -0.4862
  825UNK    H02 7419  26.090   0.347   3.668  0.7749  0.0101  0.5159
  825UNK    C03 7420  26.144   0.544   3.707 -0.1472 -0.9734  0.4768
  825UNK    C04 7421  26.182   0.543   3.851 -0.2693 -0.5520 -0.3056
  825UNK    F05 7422  26.137   0.445   3.930  0.1819 -0.0187  0.1846
  825UNK    F06 7423  26.317   0.517   3.862 -0.1123 -0.4240 -0.1735
  825UNK    F07 7424  26.164   0.664   3.908  0.0471  0.0432 -0.2528
  825UNK    H08 7425  26.068   0.617   3.683  0.8695 -0.6198 -1.8379
  826UNK    F00 7426  25.686   1.102  11.012 -0.0036 -0.2025  0.1947
  826UNK    C01 7427  25.709   1.176  10.905  0.2202  0.0591 -0.0629
  826UNK    H02 7428  25.758   1.109  10.835 -2.4066 -0.9088 -1.0596
  826UNK    C03 7429  25.676   1.305  10.889  0.4674 -0.6630 -0.1651
  826UNK    C04 7430  25.662   1.374  10.762  0.5141 -0.0368  0.9493
  826UNK    F05 7431  25.563   1.321  10.677 -0.0745 -0.3998  0.1130
  826UNK    F06 7432  25.631   1.499  10.787  0.0064 -0.4916  0.4024
  826UNK    F07 7433  25.780   1.372  10.703  0.2272  0.4624  0.0803
  826UNK    H08 7434  25.657   1.365  10.977 -0.4296 -1.0377 -0.0969
  827UNK    F00 7435  23.830   0.048   9.841  0.1717  0.0425  0.5730
  827UNK    C01 7436  23.787  -0.075   9.813  0.3753  0.4726  0.2194
  827UNK    H02 7437  23.728  -0.110   9.897 -0.7082 -0.5162 -0.9354
  827UNK    C03 7438  23.831  -0.148   9.710 -0.4517  0.1427  0.4045
  827UNK    C04 7439  23.750  -0.231   9.626  0.3660 -0.1898 -0.1186
  827UNK    F05 7440  23.815  -0.314   9.540 -0.3876 -0.5531  0.3428
  827UNK    F06 7441  23.669  -0.319   9.697  0.4433  0.2194 -0.3998
  827UNK    F07 7442  23.670  -0.152   9.554  0.2275 -0.2772 -0.0686
  827UNK    H08 7443  23.905  -0.107   9.643  0.6228 -0.2235  1.3505
  828UNK    F00 7444  29.303   4.410   9.168  0.7551  0.4645  0.8888
  828UNK    C01 7445  29.390   4.409   9.267 -0.1002 -0.0234  0.3246
  828UNK    H02 7446  29.373   4.486   9.342 -3.3228  1.3474 -1.7220
  828UNK    C03 7447  29.472   4.306   9.267  0.3735  0.3413  0.3212
  828UNK    C04 7448  29.550   4.264   9.387  0.3719  0.2665 -0.0215
  828UNK    F05 7449  29.636   4.358   9.438  0.4033 -0.1079 -0.3917
  828UNK    F06 7450  29.468   4.223   9.483  0.0772 -0.3057  0.2479
  828UNK    F07 7451  29.635   4.158   9.360  0.2131 -0.1930 -0.6380
  828UNK    H08 7452  29.486   4.244   9.180 -1.9997  1.7720 -1.1267
  829UNK    F00 7453  26.437   0.957   7.006  0.0460  0.1432 -0.0593
  829UNK    C01 7454  26.455   0.823   6.989  0.4222  0.4926  0.4293
  829UNK    H02 7455  26.496   0.793   6.893 -0.6408 -2.1226  0.7580
  829UNK    C03 7456  26.391   0.748   7.080  0.0250  0.0899 -0.1724
  829UNK    C04 7457  26.248   0.728   7.074 -0.0054  1.0658 -0.8938
  829UNK    F05 7458  26.217   0.645   6.975  0.5005 -0.1091 -0.1460
  829UNK    F06 7459  26.190   0.691   7.191  0.3975 -0.3740 -0.1278
  829UNK    F07 7460  26.182   0.843   7.042 -0.0943 -0.2463  0.6895
  829UNK    H08 7461  26.424   0.749   7.183  1.6025 -1.8755 -0.6344
  830UNK    F00 7462  28.935   4.074   5.217  0.0490  0.1218  0.1241
  830UNK    C01 7463  28.817   4.049   5.168  0.2919 -0.4619 -0.4473
  830UNK    H02 7464  28.761   3.969   5.218 -2.6442  1.2266 -0.9234
  830UNK    C03 7465  28.759   4.156   5.111  0.6810  0.0998  0.6378
  830UNK    C04 7466  28.613   4.168   5.090 -0.0617  0.6989 -0.1517
  830UNK    F05 7467  28.583   4.277   5.165  0.2370 -0.5603  0.3565
  830UNK    F06 7468  28.588   4.181   4.958  0.6596  0.3509  0.0117
  830UNK    F07 7469  28.553   4.056   5.129  0.5278  0.3359 -0.5511
  830UNK    H08 7470  28.817   4.213   5.040 -0.7556  0.8465  0.0552
  831UNK    F00 7471  25.774   3.035   5.880  0.4431  0.0210 -0.0443
  831UNK    C01 7472  25.895   2.990   5.840 -0.2497 -0.1896 -0.6035
  831UNK    H02 7473  25.912   3.004   5.733 -1.0258  1.5365 -0.5042
  831UNK    C03 7474  25.959   2.904   5.921 -0.5103  0.0695  0.5875
  831UNK    C04 7475  26.101   2.880   5.930  0.2711 -0.3356  0.4107
  831UNK    F05 7476  26.165   2.964   6.009  0.2784  0.6134  0.6037
  831UNK    F06 7477  26.125   2.755   5.968 -0.2852 -0.6134  0.1228
  831UNK    F07 7478  26.168   2.899   5.814 -0.4158 -0.1875 -0.4300
  831UNK    H08 7479  25.908   2.813   5.950 -2.1840  0.9904  0.6077
  832UNK    F00 7480  26.632   2.607   8.004 -0.7837 -0.3347  0.3936
  832UNK    C01 7481  26.551   2.697   8.063  0.2929 -1.0574 -0.2984
  832UNK    H02 7482  26.552   2.796   8.018  1.6818 -0.0848  1.8076
  832UNK    C03 7483  26.502   2.675   8.185 -0.3176 -0.7331  0.6626
  832UNK    C04 7484  26.439   2.554   8.227 -0.1939 -0.9535  0.3780
  832UNK    F05 7485  26.394   2.579   8.346  0.5292 -0.2959  0.1466
  832UNK    F06 7486  26.331   2.515   8.153  0.2698 -0.1801  0.2169
  832UNK    F07 7487  26.537   2.457   8.233 -0.0222  0.2175  0.3415
  832UNK    H08 7488  26.479   2.764   8.243  1.2379 -0.8456  1.4569
  833UNK    F00 7489  27.004   0.002   9.410 -0.4148  0.0684 -0.0663
  833UNK    C01 7490  26.955  -0.001   9.286  0.8560 -0.1295 -0.0408
  833UNK    H02 7491  27.002   0.071   9.220  0.2776  0.6903  0.4401
  833UNK    C03 7492  26.889  -0.113   9.252 -0.2131 -0.3898  0.0976
  833UNK    C04 7493  26.869  -0.157   9.111  0.0743 -0.0106 -0.7684
  833UNK    F05 7494  26.817  -0.066   9.030 -0.5283 -0.1965 -0.0285
  833UNK    F06 7495  26.988  -0.190   9.060 -0.2774 -0.2016 -0.6063
  833UNK    F07 7496  26.794  -0.267   9.094  0.0443  0.0075  0.3037
  833UNK    H08 7497  26.804  -0.135   9.315  1.0076 -0.7111  1.6418
  834UNK    F00 7498  24.811   2.631   7.600 -0.3290  0.1455  0.2730
  834UNK    C01 7499  24.867   2.750   7.614 -0.3681  0.5494  0.2433
  834UNK    H02 7500  24.787   2.815   7.650 -2.3593 -0.3069 -2.4034
  834UNK    C03 7501  25.000   2.764   7.613  0.2899 -0.3679  0.5525
  834UNK    C04 7502  25.049   2.885   7.680 -0.0477  0.0435  0.3616
  834UNK    F05 7503  25.046   2.875   7.815  0.5638  0.2670  0.0306
  834UNK    F06 7504  25.175   2.922   7.646  0.4929 -0.2923  0.3210
  834UNK    F07 7505  24.966   2.988   7.644  0.6604  0.3371  0.3511
  834UNK    H08 7506  25.068   2.687   7.579  1.2676  1.3206 -1.3683
  835UNK    F00 7507  25.616   4.188   6.627 -0.0648 -0.2648 -0.5243
  835UNK    C01 7508  25.531   4.241   6.713 -0.2317 -0.4742 -0.0208
  835UNK    H02 7509  25.575   4.244   6.812  3.0563 -1.7426 -1.3813
  835UNK    C03 7510  25.401   4.249   6.678 -0.5993 -0.1163  0.3526
  835UNK    C04 7511  25.292   4.337   6.738 -0.3685  0.0787  0.8190
  835UNK    F05 7512  25.301   4.327   6.872  0.9746  0.1392  0.1248
  835UNK    F06 7513  25.293   4.464   6.700 -0.0620 -0.2163  0.2877
  835UNK    F07 7514  25.163   4.311   6.707 -0.3374  0.6559  0.4495
  835UNK    H08 7515  25.366   4.199   6.589 -2.2364 -1.3138  1.6514
  836UNK    F00 7516  25.873   3.576  10.533 -0.1383  0.6308  0.5312
  836UNK    C01 7517  25.971   3.665  10.511  0.1304  0.4166 -0.1732
  836UNK    H02 7518  26.013   3.708  10.601  0.3517 -1.0861  0.4632
  836UNK    C03 7519  25.967   3.733  10.397  0.0877  0.0213  0.1187
  836UNK    C04 7520  25.932   3.677  10.267  1.2487 -0.3129 -1.1789
  836UNK    F05 7521  25.984   3.753  10.171 -0.2603  0.6433 -0.6229
  836UNK    F06 7522  25.983   3.550  10.254  0.1066  0.5679 -0.2346
  836UNK    F07 7523  25.791   3.675  10.242 -0.9510 -0.0421 -0.7317
  836UNK    H08 7524  25.986   3.840  10.400 -0.2626  0.0861  0.0620
  837UNK    F00 7525  25.664   5.040   9.712 -0.0480 -0.1198  0.0116
  837UNK    C01 7526  25.747   5.009   9.614 -0.3116  0.0639  0.4095
  837UNK    H02 7527  25.832   5.077   9.614  0.9121 -1.4201 -0.2268
  837UNK    C03 7528  25.692   4.931   9.516  0.3392  0.0631  0.7031
  837UNK    C04 7529  25.576   4.973   9.439 -0.3871  0.0684 -0.5137
  837UNK    F05 7530  25.618   5.078   9.365 -0.2638 -0.3825  0.5494
  837UNK    F06 7531  25.534   4.876   9.357 -0.3367 -0.0503  0.0524
  837UNK    F07 7532  25.462   4.996   9.510 -0.0078 -0.0292  0.0620
  837UNK    H08 7533  25.742   4.844   9.477  2.4503  0.0320  3.3066
  838UNK    F00 7534  25.948   1.745  10.083  0.3546  0.3087  0.2568
  838UNK    C01 7535  26.009   1.840  10.016 -0.7767  0.2281 -0.1021
  838UNK    H02 7536  26.117   1.832  10.027 -0.7426  0.3301 -0.3605
  838UNK    C03 7537  25.957   1.894   9.905 -0.1039 -0.2640  0.1666
  838UNK    C04 7538  26.042   1.942   9.795 -0.1138  0.2322  0.0610
  838UNK    F05 7539  26.057   1.841   9.708 -0.4336  0.0522 -0.0461
  838UNK    F06 7540  25.978   2.034   9.721  0.3686  0.7271  0.2250
  838UNK    F07 7541  26.163   1.975   9.839 -0.1265  0.0725  0.4217
  838UNK    H08 7542  25.861   1.860   9.869  1.4623 -3.1705 -1.4153
  839UNK    F00 7543  25.991   4.050   5.913  0.3572  0.4653 -0.0088
  839UNK    C01 7544  25.939   3.991   6.023  0.3719 -1.0583  0.0507
  839UNK    H02 7545  26.015   3.968   6.098  1.6018  1.5620 -0.3314
  839UNK    C03 7546  25.813   3.958   6.024  0.0238 -0.6202  0.7632
  839UNK    C04 7547  25.737   3.928   6.147 -1.0017  0.8292  0.1539
  839UNK    F05 7548  25.705   4.021   6.233  0.0366 -0.2381 -0.3067
  839UNK    F06 7549  25.634   3.839   6.122 -0.2155 -0.3559  0.6632
  839UNK    F07 7550  25.815   3.856   6.227  0.0307  0.3785 -0.2880
  839UNK    H08 7551  25.771   3.905   5.940  0.7358 -0.3937  0.2574
  840UNK    F00 7552  24.992   0.904   7.382 -0.0400 -0.2341  0.8665
  840UNK    C01 7553  24.960   0.877   7.510 -0.5513  0.6095 -0.4796
  840UNK    H02 7554  25.016   0.790   7.545 -0.4563  0.4438 -1.0401
  840UNK    C03 7555  24.947   0.979   7.584 -0.5040 -0.8772  0.0875
  840UNK    C04 7556  25.065   1.061   7.638  0.4403 -0.2440 -0.0420
  840UNK    F05 7557  25.035   1.168   7.714 -0.5932  0.5939 -0.4783
  840UNK    F06 7558  25.158   0.980   7.703  0.0584  0.2609 -0.0603
  840UNK    F07 7559  25.135   1.101   7.530 -0.7826 -0.1291  0.3533
  840UNK    H08 7560  24.852   1.030   7.594  1.3477  2.1572  3.3513
  841UNK    F00 7561  30.234   2.578   8.092  0.2303 -0.2403 -0.3044
  841UNK    C01 7562  30.308   2.690   8.110 -0.2865 -0.5519  0.9635
  841UNK    H02 7563  30.331   2.738   8.015 -0.1421 -0.6166  0.9653
  841UNK    C03 7564  30.312   2.744   8.234 -0.0271 -0.4381  0.1442
  841UNK    C04 7565  30.367   2.880   8.251  0.1864  0.6819 -0.3007
  841UNK    F05 7566  30.299   2.984   8.196  0.0079 -0.0541 -0.2870
  841UNK    F06 7567  30.373   2.904   8.384 -0.2036  0.3490 -0.6186
  841UNK    F07 7568  30.500   2.904   8.209 -0.1001  0.4112 -0.3909
  841UNK    H08 7569  30.308   2.684   8.323  0.0039  0.7114  0.9258
  842UNK    F00 7570  25.665   2.591   7.640  0.1139 -0.0188 -0.0948
  842UNK    C01 7571  25.578   2.551   7.735  0.3675 -0.9167  0.0647
  842UNK    H02 7572  25.627   2.499   7.817 -0.3378 -0.7715  0.5863
  842UNK    C03 7573  25.448   2.551   7.686 -0.2104 -0.7106 -0.2243
  842UNK    C04 7574  25.325   2.565   7.768 -0.8028 -0.3558 -0.2407
  842UNK    F05 7575  25.302   2.694   7.787  0.1364 -0.0702  0.5515
  842UNK    F06 7576  25.218   2.505   7.709  0.1928 -0.0433  0.1830
  842UNK    F07 7577  25.344   2.505   7.894 -0.2780  0.1815 -0.4249
  842UNK    H08 7578  25.437   2.581   7.583 -0.5970 -0.1014 -0.0038
  843UNK    F00 7579  26.490   0.776   6.183 -0.3276 -0.3545  0.3958
  843UNK    C01 7580  26.511   0.898   6.134  0.1389 -0.0479 -1.2785
  843UNK    H02 7581  26.590   0.909   6.060 -0.4232  1.4380 -1.6770
  843UNK    C03 7582  26.462   1.008   6.198 -0.3224  0.2677 -0.0049
  843UNK    C04 7583  26.322   1.026   6.223  0.0966 -0.8692 -0.6306
  843UNK    F05 7584  26.269   0.930   6.306  0.4127 -0.5217 -0.0964
  843UNK    F06 7585  26.297   1.143   6.278  0.1120  0.2075 -0.1664
  843UNK    F07 7586  26.254   1.017   6.104  0.2239  0.6753 -0.3794
  843UNK    H08 7587  26.503   1.099   6.158  0.7412 -1.9577 -4.3202
  844UNK    F00 7588  25.766   3.187   6.340  0.0993 -0.1466 -0.2338
  844UNK    C01 7589  25.851   3.101   6.283  0.0803 -0.1069 -0.0171
  844UNK    H02 7590  25.801   3.036   6.211 -0.7539  1.3325 -0.7605
  844UNK    C03 7591  25.971   3.156   6.266 -0.2686 -0.0407 -0.2635
  844UNK    C04 7592  26.075   3.177   6.371 -0.2735 -0.5895  0.1998
  844UNK    F05 7593  26.150   3.276   6.321  0.8081  0.5275 -0.5882
  844UNK    F06 7594  26.027   3.215   6.492  0.3485  0.1843  0.1198
  844UNK    F07 7595  26.169   3.078   6.382 -0.3560  0.3687  0.0744
  844UNK    H08 7596  26.013   3.143   6.168  1.7224 -0.3052  0.6124
  845UNK    F00 7597  23.986   3.530   8.614  0.0849 -0.4323 -0.0393
  845UNK    C01 7598  24.050   3.442   8.693 -0.2690 -0.1418  0.0770
  845UNK    H02 7599  24.007   3.446   8.792 -0.3569 -0.6738  0.0628
  845UNK    C03 7600  24.143   3.358   8.644  0.3288 -0.4889  0.5219
  845UNK    C04 7601  24.270   3.413   8.589 -0.5628  0.2628 -0.1372
  845UNK    F05 7602  24.255   3.477   8.473 -0.2183 -0.2021  0.1814
  845UNK    F06 7603  24.322   3.512   8.675 -0.1467  0.2434  0.1571
  845UNK    F07 7604  24.363   3.314   8.578 -0.4600 -0.1244 -0.4298
  845UNK    H08 7605  24.107   3.270   8.593  0.7030 -0.3020 -0.0660
  846UNK    F00 7606  26.866   4.145   8.579 -0.5869  0.4158 -0.2485
  846UNK    C01 7607  26.805   4.059   8.664  0.4147  0.4172 -0.2345
  846UNK    H02 7608  26.829   4.091   8.766 -1.6982 -1.3179  0.8712
  846UNK    C03 7609  26.712   3.978   8.618  0.8281 -0.3817 -0.2068
  846UNK    C04 7610  26.603   3.912   8.691  0.5047  0.3467 -0.1701
  846UNK    F05 7611  26.481   3.972   8.702 -0.7495  0.0140  0.5063
  846UNK    F06 7612  26.583   3.793   8.630  0.4615 -0.0167  0.1689
  846UNK    F07 7613  26.623   3.884   8.819  0.1895 -0.1596  0.0246
  846UNK    H08 7614  26.725   3.931   8.522  1.1043  1.8786 -1.3299
  847UNK    F00 7615  26.063   4.994  10.281 -0.1708  0.0903 -0.5687
  847UNK    C01 7616  25.981   5.101  10.280 -0.8419  0.3429 -0.5705
  847UNK    H02 7617  26.039   5.192  10.263  0.0025  0.0287  0.5702
  847UNK    C03 7618  25.872   5.069  10.213 -0.8037  0.1178 -0.3463
  847UNK    C04 7619  25.846   5.105  10.070  0.0633  0.2189  0.7071
  847UNK    F05 7620  25.893   5.229  10.044  0.3340  0.2837  0.5074
  847UNK    F06 7621  25.892   5.007   9.983 -0.5519  0.1117 -0.0600
  847UNK    F07 7622  25.718   5.096  10.050  0.0129  0.0334 -0.2536
  847UNK    H08 7623  25.813   4.990  10.258  0.0970 -0.0644  0.5476
  848UNK    F00 7624  26.822   4.782   6.721 -0.3860 -0.0642  0.1361
  848UNK    C01 7625  26.897   4.892   6.722 -0.0501 -0.1326 -0.0866
  848UNK    H02 7626  26.849   4.983   6.687 -1.7072 -1.0777 -0.3267
  848UNK    C03 7627  26.994   4.885   6.814  0.0159  0.4091  0.3372
  848UNK    C04 7628  27.123   4.828   6.795 -0.6034 -0.2518 -0.3197
  848UNK    F05 7629  27.221   4.918   6.826  0.0116 -0.4308 -0.4594
  848UNK    F06 7630  27.139   4.732   6.892  0.3381 -0.4667 -0.2730
  848UNK    F07 7631  27.153   4.772   6.672  0.0598 -0.4562 -0.2519
  848UNK    H08 7632  26.978   4.892   6.921  2.1104 -0.9035  0.7603
  849UNK    F00 7633  27.841   3.495   6.533 -0.1913  0.4427  0.4886
  849UNK    C01 7634  27.853   3.618   6.481 -0.3919  0.5480  0.1936
  849UNK    H02 7635  27.824   3.692   6.556  0.8995  1.1352  0.1331
  849UNK    C03 7636  27.909   3.645   6.360 -0.5036  0.0452 -0.9198
  849UNK    C04 7637  27.836   3.621   6.236 -0.5583  0.0815  0.9299
  849UNK    F05 7638  27.732   3.700   6.232  0.2206 -0.6152 -0.1570
  849UNK    F06 7639  27.911   3.650   6.126 -0.1611  0.1336 -0.0923
  849UNK    F07 7640  27.793   3.491   6.218  0.3625  0.3036  0.4472
  849UNK    H08 7641  27.987   3.719   6.349 -0.5576 -0.0594 -2.1212
  850UNK    F00 7642  28.351   2.706   7.822 -0.1302 -0.0603  1.0728
  850UNK    C01 7643  28.381   2.784   7.926 -0.3760 -0.4393 -0.2542
  850UNK    H02 7644  28.398   2.889   7.906  0.1173 -0.2695  1.0006
  850UNK    C03 7645  28.328   2.755   8.041 -0.1144 -0.5656  0.4683
  850UNK    C04 7646  28.197   2.683   8.065 -0.4985  0.4781 -0.0922
  850UNK    F05 7647  28.102   2.731   7.986 -0.0241 -0.1364 -0.0484
  850UNK    F06 7648  28.196   2.556   8.047  0.0173 -0.5083  0.0577
  850UNK    F07 7649  28.155   2.704   8.189  0.4147 -0.3545  0.3122
  850UNK    H08 7650  28.366   2.812   8.125  0.9291  0.3578 -0.6070
  851UNK    F00 7651  25.384   4.735   5.419 -0.0701 -0.2131 -0.0684
  851UNK    C01 7652  25.426   4.813   5.314  0.2711  0.1921  0.2569
  851UNK    H02 7653  25.516   4.769   5.273  0.5419  0.9847 -0.0009
  851UNK    C03 7654  25.340   4.894   5.250  0.3410 -0.4548 -0.3639
  851UNK    C04 7655  25.359   4.947   5.113  0.5425 -0.5386 -0.1958
  851UNK    F05 7656  25.296   5.063   5.103  0.2731 -0.2839 -0.4938
  851UNK    F06 7657  25.491   4.988   5.104  0.6179  0.0648  0.0898
  851UNK    F07 7658  25.325   4.879   4.999  0.2420  0.3904 -0.6365
  851UNK    H08 7659  25.251   4.929   5.301  0.8859  0.3966  0.0128
  852UNK    F00 7660  26.194   2.882   6.813 -0.2099 -0.4417 -0.0234
  852UNK    C01 7661  26.301   2.954   6.861  0.1226  0.3859  0.2137
  852UNK    H02 7662  26.354   2.985   6.771 -0.9597  1.6131 -0.0154
  852UNK    C03 7663  26.299   3.006   6.984 -0.0914  0.1229 -0.0857
  852UNK    C04 7664  26.414   3.044   7.066 -0.8576 -0.8522  0.1401
  852UNK    F05 7665  26.406   3.007   7.198 -0.0682 -0.1092 -0.5061
  852UNK    F06 7666  26.533   2.991   7.017 -0.2103  0.0188  0.4864
  852UNK    F07 7667  26.417   3.177   7.055  0.1527 -0.8345 -0.4898
  852UNK    H08 7668  26.204   3.025   7.030  0.0621 -0.2327  0.3875
  853UNK    F00 7669  23.462   2.770   6.036  0.4402  0.3737  0.1277
  853UNK    C01 7670  23.332   2.799   6.024 -0.5469  0.3799  0.0964
  853UNK    H02 7671  23.310   2.898   6.062  3.7094  1.6423 -0.4039
  853UNK    C03 7672  23.245   2.704   5.998  0.2944 -0.2405  0.0719
  853UNK    C04 7673  23.125   2.720   5.910 -0.2817  0.3731  0.2567
  853UNK    F05 7674  23.138   2.657   5.793  0.3043  0.2330 -0.6253
  853UNK    F06 7675  23.015   2.662   5.961 -0.1433 -0.3385  0.0656
  853UNK    F07 7676  23.106   2.850   5.883  0.5074 -0.0908 -0.0069
  853UNK    H08 7677  23.252   2.616   6.060 -2.3161  0.5668  1.6448
  854UNK    F00 7678  26.742   4.946   8.824 -0.1394 -0.2411  0.2545
  854UNK    C01 7679  26.849   4.870   8.815  0.5677 -0.0430  0.2376
  854UNK    H02 7680  26.886   4.830   8.910 -0.0799 -0.4988  0.3024
  854UNK    C03 7681  26.902   4.841   8.694 -0.3103 -0.6616 -0.0937
  854UNK    C04 7682  26.971   4.717   8.649  0.4783  0.4087 -0.7583
  854UNK    F05 7683  27.065   4.680   8.741  0.1182  0.3710  0.0466
  854UNK    F06 7684  26.875   4.621   8.638 -0.4402 -0.0070 -0.1693
  854UNK    F07 7685  27.031   4.733   8.530  0.2889  0.1548 -0.0847
  854UNK    H08 7686  26.875   4.905   8.611 -2.4084 -1.3034  0.0482
  855UNK    F00 7687  28.098   5.219   6.943  0.1606  0.5484  0.2088
  855UNK    C01 7688  28.212   5.294   6.950  0.1536  0.1125 -0.0481
  855UNK    H02 7689  28.261   5.266   7.043 -1.8080 -0.7648  0.7464
  855UNK    C03 7690  28.266   5.344   6.836  0.3800 -0.7058 -0.4293
  855UNK    C04 7691  28.391   5.423   6.836 -0.4956  0.0326 -0.0291
  855UNK    F05 7692  28.420   5.474   6.961  0.7825  0.3619 -0.4064
  855UNK    F06 7693  28.500   5.361   6.780  0.0262  0.3432  0.0322
  855UNK    F07 7694  28.373   5.531   6.747 -0.2154  0.3901 -0.1940
  855UNK    H08 7695  28.209   5.368   6.747 -0.7816 -0.2861  0.4069
  856UNK    F00 7696  28.921   1.774   6.584 -0.2872 -0.5670 -0.6012
  856UNK    C01 7697  28.993   1.857   6.504  0.4443  0.2886  0.4904
  856UNK    H02 7698  29.088   1.889   6.547  0.3589  1.3218 -0.0659
  856UNK    C03 7699  28.968   1.867   6.370 -0.8769 -0.4954  0.0628
  856UNK    C04 7700  28.987   1.760   6.272  0.1667  0.6279  0.5446
  856UNK    F05 7701  29.099   1.693   6.293  0.1895  0.3905  0.0879
  856UNK    F06 7702  28.873   1.686   6.274 -0.3034  0.2248  0.7088
  856UNK    F07 7703  28.983   1.810   6.142 -0.7269  0.0215 -0.3436
  856UNK    H08 7704  28.879   1.920   6.342  0.4453  0.8925 -1.6480
  857UNK    F00 7705  23.867   1.932   6.827  0.8835  0.3192 -0.2521
  857UNK    C01 7706  23.866   1.966   6.957 -0.2771  0.5882  0.1288
  857UNK    H02 7707  23.827   1.885   7.018  0.7998 -0.9184 -1.1671
  857UNK    C03 7708  23.951   2.070   6.987  0.2172  0.3477  0.1740
  857UNK    C04 7709  24.002   2.096   7.120  0.5574  1.3571 -0.6157
  857UNK    F05 7710  24.047   2.223   7.147  0.4908 -0.3491  0.5631
  857UNK    F06 7711  23.915   2.053   7.216 -0.5296 -0.0089  0.0523
  857UNK    F07 7712  24.106   2.014   7.134 -0.0551 -0.2416 -0.2480
  857UNK    H08 7713  24.028   2.096   6.916 -0.1827  0.6444 -0.1528
  858UNK    F00 7714  27.859   4.619   3.703  0.3663 -0.1317 -0.1354
  858UNK    C01 7715  27.742   4.617   3.640  0.1460 -0.1479  0.6188
  858UNK    H02 7716  27.748   4.532   3.574 -1.7199  1.7802 -2.1449
  858UNK    C03 7717  27.635   4.667   3.699  0.3328  0.4344 -0.1000
  858UNK    C04 7718  27.500   4.620   3.667  0.4037  0.1101 -0.0509
  858UNK    F05 7719  27.477   4.489   3.699 -0.0017  0.2053  0.3335
  858UNK    F06 7720  27.406   4.690   3.731  0.3689  0.5449 -0.1032
  858UNK    F07 7721  27.481   4.640   3.534 -0.1170 -0.2331 -0.0470
  858UNK    H08 7722  27.645   4.708   3.798 -1.8184  0.7640 -0.0072
  859UNK    F00 7723  25.065   2.236   4.450 -0.4882 -0.2715 -0.2846
  859UNK    C01 7724  25.170   2.157   4.419 -0.3501  0.7216  0.3917
  859UNK    H02 7725  25.135   2.054   4.429  0.7182  0.2033 -1.1130
  859UNK    C03 7726  25.294   2.201   4.435  1.0865 -0.0078 -0.6377
  859UNK    C04 7727  25.409   2.187   4.348 -0.0087  0.1473 -0.0898
  859UNK    F05 7728  25.367   2.210   4.225  0.0757  0.1701  0.6961
  859UNK    F06 7729  25.494   2.291   4.369 -0.4175  0.1067  0.1564
  859UNK    F07 7730  25.467   2.067   4.358  0.2202  0.1148 -0.4588
  859UNK    H08 7731  25.324   2.249   4.527  2.1825 -1.4044 -0.2380
  860UNK    F00 7732  27.548   2.669   6.015 -0.1969  0.1200  0.6814
  860UNK    C01 7733  27.532   2.729   6.132 -0.6156  0.4579  0.5610
  860UNK    H02 7734  27.582   2.825   6.123 -2.4216  1.1651 -2.6391
  860UNK    C03 7735  27.456   2.671   6.226 -0.0915 -0.1707 -0.4832
  860UNK    C04 7736  27.320   2.626   6.199 -0.3617 -1.0452  0.4675
  860UNK    F05 7737  27.250   2.736   6.171 -0.1599 -0.4016  0.4003
  860UNK    F06 7738  27.316   2.557   6.085  0.2463 -0.6460  0.4908
  860UNK    F07 7739  27.261   2.559   6.306 -0.0462  0.4980  0.1392
  860UNK    H08 7740  27.474   2.685   6.332  1.2447  0.2078 -0.7587
  861UNK    F00 7741  27.250   1.868   4.594 -0.3850 -0.2577  0.1895
  861UNK    C01 7742  27.144   1.845   4.511 -0.4374 -0.0291  0.1665
  861UNK    H02 7743  27.173   1.794   4.419 -1.0919  1.1914 -0.7300
  861UNK    C03 7744  27.024   1.878   4.560  0.0949  0.0264  0.1373
  861UNK    C04 7745  26.923   1.775   4.557  0.3027  0.0947 -0.1504
  861UNK    F05 7746  26.795   1.825   4.547 -0.0906  0.6823 -0.2529
  861UNK    F06 7747  26.936   1.696   4.450  0.3811 -0.0572  0.3127
  861UNK    F07 7748  26.922   1.702   4.671 -0.8874  0.1799 -0.3120
  861UNK    H08 7749  27.017   1.942   4.647  1.3696  1.3936 -0.7416
  862UNK    F00 7750  30.801   2.923  10.765  0.0936 -0.0538 -0.0221
  862UNK    C01 7751  30.908   2.927  10.835 -0.7283 -0.4192  0.1561
  862UNK    H02 7752  30.924   3.022  10.886  1.7927 -0.6068 -0.1971
  862UNK    C03 7753  30.994   2.836  10.820 -0.5953  0.3799  0.4131
  862UNK    C04 7754  31.124   2.848  10.887  0.9763 -0.3047  1.2817
  862UNK    F05 7755  31.120   2.806  11.013  0.3211 -0.2064 -0.3548
  862UNK    F06 7756  31.221   2.778  10.815  0.0363  0.1006 -0.1288
  862UNK    F07 7757  31.168   2.974  10.898  0.0873  0.4518  0.5977
  862UNK    H08 7758  30.956   2.735  10.813 -0.1463  0.2338  0.0201
  863UNK    F00 7759  24.473   4.159   4.156 -0.2828 -0.0836 -0.1571
  863UNK    C01 7760  24.572   4.222   4.216 -0.9555 -0.5491 -0.4173
  863UNK    H02 7761  24.538   4.271   4.307  1.5488 -1.4679  1.0489
  863UNK    C03 7762  24.689   4.233   4.154  1.0764 -0.1383 -0.2777
  863UNK    C04 7763  24.782   4.336   4.199  0.6402 -0.1187 -1.1247
  863UNK    F05 7764  24.849   4.387   4.094  0.2107 -0.3980  0.0376
  863UNK    F06 7765  24.711   4.436   4.254 -0.3144  0.3256 -0.8764
  863UNK    F07 7766  24.877   4.311   4.287 -0.5466  0.3608  1.0188
  863UNK    H08 7767  24.741   4.139   4.146  1.7272  0.0959  1.1253
  864UNK    F00 7768  26.034   5.205   6.373 -0.4628 -0.0740  0.0758
  864UNK    C01 7769  25.900   5.192   6.351  0.0321 -0.4262 -0.5674
  864UNK    H02 7770  25.871   5.093   6.387 -1.4772  0.9792  2.1731
  864UNK    C03 7771  25.827   5.272   6.271 -0.0618  0.2953  0.5834
  864UNK    C04 7772  25.683   5.271   6.243 -0.2720 -0.5650  0.6518
  864UNK    F05 7773  25.625   5.352   6.326  0.2515 -0.3094 -0.2959
  864UNK    F06 7774  25.654   5.317   6.113 -0.1498 -0.5457  0.2272
  864UNK    F07 7775  25.631   5.147   6.262 -0.0456  0.0170  0.5235
  864UNK    H08 7776  25.884   5.358   6.238 -0.6812  1.6605  3.0093
  865UNK    F00 7777  24.300   4.348   8.125 -0.3169 -0.2213 -1.0421
  865UNK    C01 7778  24.381   4.410   8.210  0.1435  0.1704  0.6597
  865UNK    H02 7779  24.483   4.420   8.172  0.3185 -0.6804  0.9011
  865UNK    C03 7780  24.353   4.405   8.340 -0.7406 -0.1588 -0.5262
  865UNK    C04 7781  24.430   4.326   8.434  0.0039 -0.9984  0.5398
  865UNK    F05 7782  24.519   4.396   8.508  0.3029 -0.5297 -0.1492
  865UNK    F06 7783  24.333   4.281   8.520 -0.0404  0.0804 -0.5862
  865UNK    F07 7784  24.495   4.222   8.377 -0.2624 -0.2632  0.3470
  865UNK    H08 7785  24.251   4.389   8.369 -0.6912  0.0028 -0.2600
  866UNK    F00 7786  28.406   3.665   8.926 -0.5694 -0.0524  0.1231
  866UNK    C01 7787  28.494   3.567   8.884  0.0981 -1.0485  1.2618
  866UNK    H02 7788  28.439   3.481   8.846  1.6474 -0.3277 -2.8789
  866UNK    C03 7789  28.614   3.599   8.843 -0.7452  0.4825 -1.3037
  866UNK    C04 7790  28.732   3.590   8.934  0.7709  0.1074  0.9212
  866UNK    F05 7791  28.726   3.685   9.024 -0.2136 -0.4765 -0.2889
  866UNK    F06 7792  28.761   3.459   8.962 -0.4406 -0.7121  0.3359
  866UNK    F07 7793  28.844   3.612   8.868 -0.2447  0.1134  0.4249
  866UNK    H08 7794  28.639   3.674   8.770 -1.4562  3.5612  1.5430
  867UNK    F00 7795  25.258   3.934   6.588 -0.6581 -0.0140  0.0253
  867UNK    C01 7796  25.265   3.894   6.713  0.5367  0.8940 -0.0178
  867UNK    H02 7797  25.317   3.798   6.708 -1.3866 -0.1957  0.4182
  867UNK    C03 7798  25.166   3.928   6.794 -0.3833  0.3165 -0.0151
  867UNK    C04 7799  25.174   3.910   6.941 -0.0877 -0.3220  0.3622
  867UNK    F05 7800  25.274   3.984   6.985 -0.2616  0.3050  0.2467
  867UNK    F06 7801  25.054   3.938   7.006  0.4964 -0.4490 -0.4128
  867UNK    F07 7802  25.202   3.778   6.974 -0.4142 -0.1863 -0.4878
  867UNK    H08 7803  25.069   3.954   6.754  0.2880  2.2601 -0.4199
  868UNK    F00 7804  26.141   0.581   9.032 -0.4114 -0.1417  0.2559
  868UNK    C01 7805  26.136   0.460   9.083 -0.9228  0.4889 -0.2816
  868UNK    H02 7806  26.212   0.396   9.037  2.1160  3.2283  0.6838
  868UNK    C03 7807  26.078   0.438   9.201 -0.0646 -0.1784  0.5654
  868UNK    C04 7808  26.113   0.342   9.300 -0.1276  0.1178 -0.2831
  868UNK    F05 7809  26.025   0.347   9.401  0.3584  0.0897 -0.6754
  868UNK    F06 7810  26.122   0.217   9.244  0.1267 -0.0779  0.0333
  868UNK    F07 7811  26.241   0.368   9.339  0.1231 -0.0275 -0.0299
  868UNK    H08 7812  26.007   0.514   9.231 -0.4216  0.3016 -1.4203
  869UNK    F00 7813  26.574   0.718   5.295  0.2255  0.0933 -0.8442
  869UNK    C01 7814  26.652   0.780   5.379  0.0370  0.4106  0.1049
  869UNK    H02 7815  26.694   0.875   5.346 -1.0848  0.6307 -0.7306
  869UNK    C03 7816  26.684   0.722   5.498  0.7920  0.2191  0.4045
  869UNK    C04 7817  26.766   0.785   5.601 -0.2033  0.3452  0.2183
  869UNK    F05 7818  26.690   0.861   5.683  0.3757 -0.2425 -0.3857
  869UNK    F06 7819  26.827   0.695   5.677  0.5314 -0.0200 -0.8268
  869UNK    F07 7820  26.872   0.865   5.560 -0.2685 -0.3199  0.0071
  869UNK    H08 7821  26.633   0.634   5.533  0.3015  0.3517  0.0313
  870UNK    F00 7822  25.600   2.828   8.277 -0.8885 -0.2366 -0.2020
  870UNK    C01 7823  25.734   2.823   8.284 -0.2863 -0.4700  0.2753
  870UNK    H02 7824  25.776   2.729   8.320 -1.5687 -1.0029  0.4183
  870UNK    C03 7825  25.797   2.933   8.246  0.0694 -0.2102 -0.0946
  870UNK    C04 7826  25.932   2.944   8.181  0.2532 -0.6192  0.3354
  870UNK    F05 7827  25.972   2.826   8.132  0.2128  0.2130 -0.1350
  870UNK    F06 7828  25.912   3.045   8.089 -0.2266 -0.3800  0.1910
  870UNK    F07 7829  26.020   2.985   8.270  0.4913 -0.0909 -0.2043
  870UNK    H08 7830  25.752   3.028   8.271 -0.0202 -0.1900 -0.3344
  871UNK    F00 7831  27.574   1.139   8.841 -0.4718 -0.1221  0.0372
  871UNK    C01 7832  27.632   1.260   8.814  0.2511  0.3667  0.2078
  871UNK    H02 7833  27.575   1.344   8.852  0.7866  0.7172  0.2430
  871UNK    C03 7834  27.768   1.264   8.805  0.5671  0.0741 -0.5813
  871UNK    C04 7835  27.847   1.375   8.860 -0.2470 -0.1030 -0.0284
  871UNK    F05 7836  27.818   1.374   8.993  0.0524  0.7156 -0.2815
  871UNK    F06 7837  27.982   1.360   8.840 -0.2595  0.0855 -0.2449
  871UNK    F07 7838  27.803   1.498   8.815 -0.2410  0.6780 -0.0033
  871UNK    H08 7839  27.835   1.179   8.795  2.0431  0.9761  1.3117
  872UNK    F00 7840  27.495   1.587   6.213  0.1272  0.1449  0.4787
  872UNK    C01 7841  27.593   1.545   6.288  0.5551 -0.6281  0.1719
  872UNK    H02 7842  27.667   1.496   6.224  0.0948 -0.2540 -0.6534
  872UNK    C03 7843  27.612   1.585   6.410  0.7657  0.3842  0.4052
  872UNK    C04 7844  27.595   1.724   6.439  0.6221 -0.7631 -0.6531
  872UNK    F05 7845  27.662   1.770   6.548 -0.3216 -0.2246  0.3991
  872UNK    F06 7846  27.634   1.811   6.347 -0.2313 -0.1870  0.2176
  872UNK    F07 7847  27.461   1.752   6.465 -0.3930 -0.2026 -0.0734
  872UNK    H08 7848  27.680   1.534   6.477  1.1212  0.8136  0.3770
  873UNK    F00 7849  26.614   0.542   7.596  0.0523  0.6413  0.3002
  873UNK    C01 7850  26.736   0.515   7.642 -0.1312  0.1884 -0.8484
  873UNK    H02 7851  26.761   0.560   7.739 -0.6745 -0.2161 -0.5218
  873UNK    C03 7852  26.806   0.438   7.563 -0.2487  0.3145  0.3202
  873UNK    C04 7853  26.943   0.399   7.600  0.2502  0.2781  0.5265
  873UNK    F05 7854  26.934   0.328   7.716 -0.1181  0.1609 -0.0029
  873UNK    F06 7855  26.986   0.303   7.513  0.5606 -0.4127  0.0053
  873UNK    F07 7856  27.030   0.497   7.631  0.1491  0.2618 -0.6394
  873UNK    H08 7857  26.783   0.417   7.460  1.0084 -1.6456  0.4101
  874UNK    F00 7858  29.924   2.533   8.754 -0.1163 -0.4124 -0.7208
  874UNK    C01 7859  29.929   2.505   8.887 -0.9557  0.4936 -0.7170
  874UNK    H02 7860  30.009   2.436   8.912 -0.6607  1.3990  0.8847
  874UNK    C03 7861  29.820   2.524   8.960  0.4892 -0.1880  0.1455
  874UNK    C04 7862  29.826   2.536   9.107  0.0590 -0.7967  0.8724
  874UNK    F05 7863  29.709   2.488   9.156 -0.1254  0.1901  0.0324
  874UNK    F06 7864  29.929   2.472   9.167 -0.2987  0.0234 -0.2795
  874UNK    F07 7865  29.836   2.666   9.147 -0.4948 -0.7388  0.0150
  874UNK    H08 7866  29.747   2.596   8.927  0.4490  0.3428  1.3686
  875UNK    F00 7867  29.474   0.189   9.537 -0.1092 -0.3323  0.1434
  875UNK    C01 7868  29.540   0.168   9.425 -0.1138  0.7576  0.0864
  875UNK    H02 7869  29.594   0.074   9.436 -0.7068  0.3958 -0.0491
  875UNK    C03 7870  29.572   0.275   9.348  0.6182  0.3517  0.2074
  875UNK    C04 7871  29.596   0.260   9.205 -0.1731  0.0027  0.3123
  875UNK    F05 7872  29.481   0.264   9.143 -0.2681 -0.1326 -0.1773
  875UNK    F06 7873  29.672   0.355   9.147 -0.5546  0.0789 -0.2931
  875UNK    F07 7874  29.659   0.141   9.184  0.3022  0.1850 -0.0203
  875UNK    H08 7875  29.517   0.365   9.372 -1.2254 -0.9116  0.8507
  876UNK    F00 7876  28.371   3.287   6.418  0.3392 -0.1426  0.2262
  876UNK    C01 7877  28.436   3.392   6.474  0.1262  0.0180 -0.7072
  876UNK    H02 7878  28.510   3.365   6.549  1.0697  1.4362 -1.1076
  876UNK    C03 7879  28.398   3.513   6.444  0.1021  0.0291  0.3662
  876UNK    C04 7880  28.268   3.579   6.489 -0.0912  0.7423 -0.2893
  876UNK    F05 7881  28.284   3.624   6.615 -0.4236  0.6056 -0.4309
  876UNK    F06 7882  28.255   3.679   6.402  0.0554 -0.3376 -0.3717
  876UNK    F07 7883  28.158   3.499   6.490 -0.0952  0.4181 -0.1903
  876UNK    H08 7884  28.466   3.573   6.386 -2.3537  0.9296 -1.7099
  877UNK    F00 7885  27.077   1.700   9.298  0.3444  0.1736  0.0564
  877UNK    C01 7886  27.069   1.579   9.241 -0.8416 -0.1232 -0.0256
  877UNK    H02 7887  27.121   1.503   9.299  0.7845  0.7753 -0.2632
  877UNK    C03 7888  26.963   1.550   9.166  0.4840  0.1468  0.4927
  877UNK    C04 7889  26.955   1.570   9.022  0.7847 -0.3782  0.3327
  877UNK    F05 7890  26.992   1.463   8.950 -0.2510  0.2832  0.5344
  877UNK    F06 7891  26.836   1.628   8.994 -0.1813  0.0432  0.0259
  877UNK    F07 7892  27.054   1.664   8.993  0.1500 -0.2344  0.0017
  877UNK    H08 7893  26.904   1.465   9.198  0.1211 -0.0976 -0.7939
  878UNK    F00 7894  24.135   1.565   6.094 -0.3192  0.6237  0.1618
  878UNK    C01 7895  24.056   1.651   6.154 -0.4386  0.6430 -0.5668
  878UNK    H02 7896  24.112   1.741   6.177  0.7679 -0.1420 -0.3231
  878UNK    C03 7897  23.934   1.665   6.109 -0.2268 -0.3763  0.1885
  878UNK    C04 7898  23.872   1.797   6.122 -0.4367  0.2706 -0.4803
  878UNK    F05 7899  23.911   1.867   6.232 -0.4058 -1.0656  0.3310
  878UNK    F06 7900  23.910   1.885   6.031 -0.1998 -0.2652 -0.4308
  878UNK    F07 7901  23.743   1.789   6.119 -0.3647 -0.0752 -0.4347
  878UNK    H08 7902  23.856   1.593   6.129  1.4978 -2.9453 -1.9151
  879UNK    F00 7903  27.319   3.167   9.215 -0.6233  0.4337  0.3607
  879UNK    C01 7904  27.406   3.191   9.313 -0.3044  0.4071 -0.0468
  879UNK    H02 7905  27.507   3.164   9.279 -1.0765 -2.2631 -0.3900
  879UNK    C03 7906  27.374   3.215   9.441 -0.4667  0.1427 -0.1256
  879UNK    C04 7907  27.447   3.324   9.513 -0.3983 -0.3775  0.0510
  879UNK    F05 7908  27.572   3.337   9.467 -0.4101  0.4805  0.9471
  879UNK    F06 7909  27.397   3.440   9.472  0.0203 -0.1931 -0.2057
  879UNK    F07 7910  27.462   3.334   9.645 -0.1134  0.0751 -0.5054
  879UNK    H08 7911  27.270   3.205   9.470 -0.1239  0.2789  1.1529
  880UNK    F00 7912  23.517   4.163   8.833 -0.2540  0.0141 -0.2444
  880UNK    C01 7913  23.548   4.178   8.965  0.2889  0.2014 -0.1952
  880UNK    H02 7914  23.458   4.151   9.021  0.1616  0.2055 -0.4007
  880UNK    C03 7915  23.622   4.280   9.003  0.1692  0.4123 -0.6425
  880UNK    C04 7916  23.712   4.276   9.121 -0.5879 -0.0365 -0.6625
  880UNK    F05 7917  23.674   4.185   9.211  0.2420 -0.0045  0.0604
  880UNK    F06 7918  23.840   4.251   9.090 -0.4924  0.5573  0.4357
  880UNK    F07 7919  23.715   4.406   9.169 -0.6560 -0.4736  0.3707
  880UNK    H08 7920  23.652   4.357   8.933 -0.1602  0.9597 -0.1852
  881UNK    F00 7921  26.296   1.288   7.089 -0.4671 -0.4241 -0.0881
  881UNK    C01 7922  26.352   1.367   6.997 -0.5116  0.0963 -0.4784
  881UNK    H02 7923  26.349   1.317   6.900  0.6615  1.6615 -1.3314
  881UNK    C03 7924  26.426   1.468   7.031 -0.1437 -0.2776  0.2971
  881UNK    C04 7925  26.447   1.575   6.936 -0.4837  0.0881  0.4556
  881UNK    F05 7926  26.507   1.522   6.828  0.0986 -0.0364 -0.0703
  881UNK    F06 7927  26.327   1.628   6.894 -0.3320  0.5665 -0.2851
  881UNK    F07 7928  26.524   1.671   6.981 -0.5190  0.0599 -0.1614
  881UNK    H08 7929  26.510   1.460   7.098  0.3845  0.9067 -0.2099
  882UNK    F00 7930  27.118   4.974   9.835 -0.6284  0.2272  0.2051
  882UNK    C01 7931  26.993   5.016   9.827 -0.1685 -0.3027 -0.0501
  882UNK    H02 7932  26.986   5.123   9.809  1.1268  0.1131  1.8265
  882UNK    C03 7933  26.896   4.921   9.805 -0.5987 -0.3980 -0.1099
  882UNK    C04 7934  26.777   4.947   9.725  0.1328  0.0950  0.5993
  882UNK    F05 7935  26.667   4.890   9.774  0.7180  0.5711 -0.0427
  882UNK    F06 7936  26.754   5.080   9.707  0.4488 -0.8342  0.1067
  882UNK    F07 7937  26.811   4.881   9.607  0.9177  0.0679 -0.0718
  882UNK    H08 7938  26.910   4.824   9.851  0.9105 -0.5883 -0.9432
  883UNK    F00 7939  26.743   3.093   5.471 -0.1625 -0.5990 -0.4370
  883UNK    C01 7940  26.838   2.997   5.491  0.0313  0.1264  0.5523
  883UNK    H02 7941  26.798   2.902   5.526 -1.1970  0.5507  0.3126
  883UNK    C03 7942  26.963   3.015   5.465 -0.0798 -1.1427  0.5606
  883UNK    C04 7943  27.043   2.919   5.391  0.2037 -0.7729  0.8268
  883UNK    F05 7944  27.001   2.922   5.260 -0.6141  0.0271 -0.1441
  883UNK    F06 7945  27.171   2.959   5.381  0.5660  0.0325 -0.8866
  883UNK    F07 7946  27.044   2.792   5.438  0.4523  0.1777 -0.1570
  883UNK    H08 7947  27.006   3.114   5.477  2.9703 -1.9355 -2.7481
  884UNK    F00 7948  26.151   3.696   5.374  0.4773 -0.1071 -0.0855
  884UNK    C01 7949  26.048   3.629   5.323  0.1630  0.0413  0.4785
  884UNK    H02 7950  25.987   3.598   5.408  0.3571  0.7604  0.8879
  884UNK    C03 7951  26.069   3.583   5.199 -0.5522 -0.0111  0.6096
  884UNK    C04 7952  25.957   3.571   5.101 -0.7239 -0.1389 -0.0474
  884UNK    F05 7953  25.998   3.518   4.986 -0.1295  0.0956 -0.7406
  884UNK    F06 7954  25.856   3.499   5.148 -0.2594 -0.3199  0.3771
  884UNK    F07 7955  25.896   3.687   5.080  0.5656 -0.3895  0.0571
  884UNK    H08 7956  26.158   3.622   5.151  0.6422 -1.0594  1.9556
  885UNK    F00 7957  25.245   2.171   5.759 -0.4721 -0.3955  0.0175
  885UNK    C01 7958  25.259   2.100   5.869 -0.5678  0.0009  0.2378
  885UNK    H02 7959  25.212   2.145   5.957 -0.0168  1.0562 -0.0012
  885UNK    C03 7960  25.309   1.980   5.854  0.2447  0.3705  0.3386
  885UNK    C04 7961  25.267   1.886   5.749  0.1675  0.2889 -0.0772
  885UNK    F05 7962  25.332   1.910   5.631 -0.2006  0.4126  0.1206
  885UNK    F06 7963  25.286   1.758   5.792 -0.8721 -0.4842 -0.0993
  885UNK    F07 7964  25.134   1.891   5.724  0.3452  0.0450  0.5157
  885UNK    H08 7965  25.362   1.938   5.939  1.1210 -1.1913 -0.9576
  886UNK    F00 7966  27.001   1.058   8.880 -0.2601  0.3587  0.2038
  886UNK    C01 7967  27.017   1.077   9.008  0.0723 -0.4387 -0.0901
  886UNK    H02 7968  27.094   1.153   9.025 -1.4953  0.8213  1.6156
  886UNK    C03 7969  26.922   1.028   9.094 -0.8424  0.1976 -0.1759
  886UNK    C04 7970  26.948   0.898   9.160  0.4903 -0.2688  0.3653
  886UNK    F05 7971  27.050   0.916   9.243 -0.2509 -0.1907  0.7860
  886UNK    F06 7972  26.854   0.842   9.228 -0.7377  0.1056 -0.2216
  886UNK    F07 7973  26.993   0.791   9.091  0.2492 -0.2764 -0.5940
  886UNK    H08 7974  26.840   1.083   9.137  0.4257  1.5688  0.5805
  887UNK    F00 7975  25.378   5.069   5.531 -0.1333  0.3247 -0.1023
  887UNK    C01 7976  25.436   5.161   5.456 -0.1542 -0.0178 -0.2699
  887UNK    H02 7977  25.356   5.217   5.407 -1.9895 -0.4782  2.1147
  887UNK    C03 7978  25.569   5.182   5.457  0.0758 -0.2455 -0.2657
  887UNK    C04 7979  25.644   5.290   5.401  0.0964 -0.8734 -0.8236
  887UNK    F05 7980  25.594   5.344   5.288  0.0408 -0.2379  0.2709
  887UNK    F06 7981  25.659   5.386   5.492 -0.7525 -0.1753  0.2740
  887UNK    F07 7982  25.772   5.251   5.371  0.1359  0.4060  0.4669
  887UNK    H08 7983  25.636   5.099   5.469  0.2000  0.2518  2.7293
  888UNK    F00 7984  26.085   5.088   6.624 -0.1191  0.1264 -0.3090
  888UNK    C01 7985  26.075   4.952   6.634  0.1160 -0.8845  0.3739
  888UNK    H02 7986  26.078   4.927   6.741 -0.8602  0.0620  0.6369
  888UNK    C03 7987  26.083   4.868   6.534 -0.2649 -0.1265 -0.1654
  888UNK    C04 7988  26.007   4.746   6.524 -0.1767  0.0508 -0.3142
  888UNK    F05 7989  25.870   4.773   6.507  0.2684  0.0118 -0.1358
  888UNK    F06 7990  26.047   4.684   6.410 -0.4374  0.7106 -0.4118
  888UNK    F07 7991  26.019   4.665   6.636  0.0399  0.0842 -0.0458
  888UNK    H08 7992  26.151   4.886   6.452  0.2001  0.9707  0.4575
  889UNK    F00 7993  29.614   1.945   8.399  0.1735  0.2182 -0.3988
  889UNK    C01 7994  29.581   1.935   8.531  0.0325 -0.5289 -0.2183
  889UNK    H02 7995  29.649   1.862   8.575  1.1871  0.1798 -0.8033
  889UNK    C03 7996  29.516   2.031   8.591  0.6386  0.2624 -0.6957
  889UNK    C04 7997  29.576   2.114   8.701 -0.4881  0.7666  0.0593
  889UNK    F05 7998  29.655   2.035   8.785  0.0082 -0.1993 -0.0516
  889UNK    F06 7999  29.647   2.221   8.660  0.5004  0.5775 -0.1022
  889UNK    F07 8000  29.486   2.187   8.773 -0.1984  0.2705 -0.0812
  889UNK    H08 8001  29.409   2.035   8.584  0.5957 -1.1547 -0.8380
  890UNK    F00 8002  24.219   4.299   8.965 -0.1450  0.0979 -0.0026
  890UNK    C01 8003  24.336   4.238   8.959  0.3646  0.2663 -0.3874
  890UNK    H02 8004  24.342   4.157   9.032 -2.4755 -0.0505 -0.4827
  890UNK    C03 8005  24.431   4.281   8.877  0.4583 -0.5643 -0.1474
  890UNK    C04 8006  24.512   4.395   8.921  0.4270 -0.4469  0.0119
  890UNK    F05 8007  24.558   4.454   8.805 -0.4455 -0.3579 -0.1222
  890UNK    F06 8008  24.446   4.491   8.985  0.2156 -0.0115  0.0049
  890UNK    F07 8009  24.620   4.366   8.997 -0.1312 -0.0335 -0.5682
  890UNK    H08 8010  24.414   4.276   8.771 -1.4538 -1.2575  0.1623
  891UNK    F00 8011  24.154   0.765   6.878  0.5054 -0.7319 -0.2754
  891UNK    C01 8012  24.267   0.801   6.928 -0.6680 -0.3087  0.0184
  891UNK    H02 8013  24.253   0.883   6.998 -1.4002  0.0758 -0.5684
  891UNK    C03 8014  24.380   0.772   6.868  0.1522 -0.3404 -0.0283
  891UNK    C04 8015  24.511   0.757   6.939  0.4011 -0.2188 -0.3667
  891UNK    F05 8016  24.509   0.809   7.064  0.6319 -0.3094  0.6231
  891UNK    F06 8017  24.542   0.630   6.950 -0.0259  0.1340  0.0679
  891UNK    F07 8018  24.607   0.817   6.867  0.0577 -0.2468  0.1745
  891UNK    H08 8019  24.394   0.813   6.770  0.8382 -0.1136  0.1618
  892UNK    F00 8020  29.398   2.941   7.691  0.1627  0.1028  0.2338
  892UNK    C01 8021  29.283   2.907   7.632  0.1560  0.8529  0.1515
  892UNK    H02 8022  29.286   2.830   7.555 -1.0204 -0.4953  1.4288
  892UNK    C03 8023  29.173   2.955   7.682  0.0136 -0.2512 -0.3288
  892UNK    C04 8024  29.142   3.098   7.699  0.5307  0.1095  0.9005
  892UNK    F05 8025  29.211   3.173   7.605  0.1901 -0.3188  0.1916
  892UNK    F06 8026  29.013   3.139   7.684 -0.0979 -0.3890  0.3425
  892UNK    F07 8027  29.185   3.131   7.822 -0.4963  0.6812 -0.1267
  892UNK    H08 8028  29.104   2.893   7.737  0.1414  0.6571  0.8595
  893UNK    F00 8029  26.123   4.151   9.360  0.1243  0.0671  0.1076
  893UNK    C01 8030  26.230   4.183   9.440  0.7335 -0.2455  0.2743
  893UNK    H02 8031  26.216   4.148   9.542  3.0532 -0.6998  0.4719
  893UNK    C03 8032  26.347   4.224   9.395 -0.6767  0.0625 -0.6708
  893UNK    C04 8033  26.468   4.220   9.478 -0.0732 -0.8292 -0.0565
  893UNK    F05 8034  26.553   4.313   9.429  0.2391  0.1947  0.4486
  893UNK    F06 8035  26.451   4.259   9.611 -0.3021 -0.2066  0.1755
  893UNK    F07 8036  26.544   4.111   9.473 -0.0007  0.3864 -0.0678
  893UNK    H08 8037  26.377   4.253   9.295 -0.9533 -0.1734 -0.8228
  894UNK    F00 8038  26.308   4.965   8.609  0.1187  0.0133  0.3106
  894UNK    C01 8039  26.271   5.081   8.662  0.3728 -0.4777  0.3068
  894UNK    H02 8040  26.213   5.056   8.751  0.7310 -0.2015  0.6170
  894UNK    C03 8041  26.266   5.192   8.589  0.3882 -0.0101 -0.4838
  894UNK    C04 8042  26.324   5.317   8.642 -0.2509  0.3424  0.2937
  894UNK    F05 8043  26.457   5.312   8.631  0.4842  0.1767 -0.0451
  894UNK    F06 8044  26.278   5.408   8.560 -0.0206 -0.2870 -0.5858
  894UNK    F07 8045  26.278   5.349   8.766 -0.0432  0.0353  0.1906
  894UNK    H08 8046  26.275   5.193   8.481  1.9558  0.3288 -0.3526
  895UNK    F00 8047  25.599   1.634   6.399 -0.2522 -0.1358 -0.1028
  895UNK    C01 8048  25.700   1.672   6.477 -0.0597  0.1992  0.0512
  895UNK    H02 8049  25.725   1.593   6.547  2.1741  1.0520  0.2439
  895UNK    C03 8050  25.728   1.799   6.491 -0.5981  0.2622  0.4755
  895UNK    C04 8051  25.869   1.847   6.505 -0.1743 -0.0938  0.8025
  895UNK    F05 8052  25.934   1.758   6.585 -0.3912  0.0437  0.4384
  895UNK    F06 8053  25.939   1.875   6.392 -0.0603 -0.0514  0.0672
  895UNK    F07 8054  25.877   1.961   6.582 -0.6704  0.7764  0.1149
  895UNK    H08 8055  25.675   1.858   6.418 -0.5667 -0.5084 -0.1745
  896UNK    F00 8056  26.987   4.881   3.769 -0.2348 -0.1180 -0.3911
  896UNK    C01 8057  27.013   4.764   3.831 -0.3820  0.1164  0.2582
  896UNK    H02 8058  26.933   4.691   3.827 -3.0323  2.9139  0.6747
  896UNK    C03 8059  27.137   4.742   3.884 -1.1193 -0.2322  0.0097
  896UNK    C04 8060  27.166   4.605   3.943 -0.1036  0.1273 -0.0863
  896UNK    F05 8061  27.067   4.564   4.024 -0.2468  0.0599  0.5478
  896UNK    F06 8062  27.194   4.509   3.850  0.2150  0.1920 -0.2260
  896UNK    F07 8063  27.278   4.612   4.029  0.0771 -0.6322 -0.0408
  896UNK    H08 8064  27.208   4.820   3.907 -1.5500  0.2646 -0.3413
  897UNK    F00 8065  27.498   4.049   8.224  0.1818 -0.2500 -0.0425
  897UNK    C01 8066  27.574   3.999   8.321 -0.4243 -0.5743 -0.1017
  897UNK    H02 8067  27.655   4.070   8.333 -0.8691 -0.3464  1.5794
  897UNK    C03 8068  27.516   3.929   8.421  0.7057 -0.2045  0.5022
  897UNK    C04 8069  27.588   3.883   8.542 -0.1881 -0.2346  0.4726
  897UNK    F05 8070  27.541   3.766   8.589  0.1896 -0.1215  0.0746
  897UNK    F06 8071  27.713   3.849   8.514  0.4192 -0.1560  0.2317
  897UNK    F07 8072  27.574   3.973   8.639  0.0383 -0.1622 -0.3699
  897UNK    H08 8073  27.455   3.847   8.386  0.0105 -0.3056  1.9370
  898UNK    F00 8074  29.344   2.517   6.368 -0.3432 -0.0051  0.1338
  898UNK    C01 8075  29.418   2.617   6.423  0.5422  0.5726  0.1504
  898UNK    H02 8076  29.500   2.651   6.360 -0.6690 -0.2588 -1.9502
  898UNK    C03 8077  29.410   2.624   6.554  0.9446 -0.0397  0.5210
  898UNK    C04 8078  29.467   2.732   6.635  0.1750  0.6936  0.3462
  898UNK    F05 8079  29.382   2.833   6.666 -0.0267 -0.3223  0.2417
  898UNK    F06 8080  29.519   2.678   6.752 -0.1224 -0.0445 -0.6946
  898UNK    F07 8081  29.573   2.783   6.566 -0.1449 -0.0429  0.1387
  898UNK    H08 8082  29.348   2.553   6.607 -2.0376  2.7150  0.9220
  899UNK    F00 8083  26.294   4.245  10.140 -0.3633 -0.0933 -0.3718
  899UNK    C01 8084  26.205   4.274  10.044  0.1219  0.5366  0.1987
  899UNK    H02 8085  26.235   4.366   9.994 -0.5365  0.5306 -0.2083
  899UNK    C03 8086  26.143   4.173   9.994 -0.1342  0.7637  0.3708
  899UNK    C04 8087  26.079   4.175   9.859 -0.1061  0.2816  0.1110
  899UNK    F05 8088  26.013   4.058   9.837  0.3631  0.0974 -0.4288
  899UNK    F06 8089  25.996   4.286   9.837  0.3140  0.0541 -0.6067
  899UNK    F07 8090  26.187   4.180   9.775  0.0563  0.2105 -0.1328
  899UNK    H08 8091  26.100   4.098  10.059  1.7598  0.5579  1.4142
  900UNK    F00 8092  24.057   4.061  10.378  0.3417  0.2259  0.1059
  900UNK    C01 8093  24.157   4.109  10.299 -0.1076 -0.6437  0.1939
  900UNK    H02 8094  24.206   4.188  10.356 -0.2446 -0.6007  0.2537
  900UNK    C03 8095  24.164   4.086  10.171 -0.8442  0.1862  0.2828
  900UNK    C04 8096  24.285   4.051  10.088 -0.2128  0.1706 -0.4287
  900UNK    F05 8097  24.378   4.142  10.117  0.0640  0.7569 -0.0704
  900UNK    F06 8098  24.329   3.931  10.129 -0.1675 -0.2451 -0.4664
  900UNK    F07 8099  24.257   4.041   9.956  0.0056 -0.2517 -0.3047
  900UNK    H08 8100  24.073   4.095  10.114 -0.4485 -1.3011 -0.6348
  901UNK    F00 8101  28.204   3.319   8.646  0.0536 -0.2191 -0.4398
  901UNK    C01 8102  28.217   3.412   8.551  0.0026 -0.4497 -0.4408
  901UNK    H02 8103  28.259   3.368   8.460  2.9820 -0.6952  0.9874
  901UNK    C03 8104  28.127   3.516   8.563 -0.6130 -0.2478 -0.2456
  901UNK    C04 8105  28.077   3.593   8.454  0.8794 -0.4347 -0.0778
  901UNK    F05 8106  27.996   3.520   8.372 -0.0644 -0.2537  0.3945
  901UNK    F06 8107  27.990   3.692   8.494 -0.0455  0.1745  0.1618
  901UNK    F07 8108  28.176   3.655   8.390  0.8382 -0.5002 -0.5667
  901UNK    H08 8109  28.077   3.529   8.658 -0.7149 -2.7680  0.0784
  902UNK    F00 8110  28.284   0.762   8.464 -0.3676 -0.2849  0.0104
  902UNK    C01 8111  28.250   0.635   8.435  0.1765 -0.2503  0.2813
  902UNK    H02 8112  28.288   0.593   8.341  1.5916 -2.8778  1.9584
  902UNK    C03 8113  28.158   0.581   8.509 -0.1460  0.0682 -0.5144
  902UNK    C04 8114  28.142   0.629   8.650  0.3264 -0.0848  0.1913
  902UNK    F05 8115  28.080   0.536   8.729  0.1002 -0.0301 -0.2356
  902UNK    F06 8116  28.257   0.667   8.712 -0.6153  0.3079  0.1113
  902UNK    F07 8117  28.054   0.730   8.652  0.3868 -0.1615  0.0478
  902UNK    H08 8118  28.072   0.525   8.476  0.4104 -1.1873  0.1643
  903UNK    F00 8119  25.543   4.080   8.033 -0.2026 -0.2983 -0.5175
  903UNK    C01 8120  25.423   4.040   7.990 -0.7140 -0.0077  0.9518
  903UNK    H02 8121  25.411   3.934   8.012  1.0251 -0.5534 -0.6392
  903UNK    C03 8122  25.332   4.133   7.959 -0.7476 -0.5737 -0.0598
  903UNK    C04 8123  25.185   4.128   7.929 -0.1738 -0.4582  0.8730
  903UNK    F05 8124  25.101   4.110   8.029  0.0610 -0.0102 -0.2246
  903UNK    F06 8125  25.138   4.236   7.855 -0.0318  0.1374  0.1082
  903UNK    F07 8126  25.181   4.024   7.842 -0.4769 -0.6854  0.0775
  903UNK    H08 8127  25.369   4.233   7.940 -1.1853 -0.2154  0.9398
  904UNK    F00 8128  27.327   1.006   6.473 -0.2142  0.0539  0.0756
  904UNK    C01 8129  27.218   0.926   6.462  0.2514 -0.1199  0.9095
  904UNK    H02 8130  27.194   0.915   6.356  1.8939  1.5901  0.3446
  904UNK    C03 8131  27.124   0.927   6.559 -0.0239 -0.5276 -0.3504
  904UNK    C04 8132  27.060   0.804   6.597  0.3283  0.2614 -0.0166
  904UNK    F05 8133  27.037   0.716   6.496 -0.2424  0.1840 -1.0600
  904UNK    F06 8134  27.122   0.736   6.693 -0.0900  0.1215  0.1915
  904UNK    F07 8135  26.933   0.831   6.643 -0.0790 -0.0231  0.3360
  904UNK    H08 8136  27.123   1.005   6.634  0.8198 -0.9503  0.1029
  905UNK    F00 8137  29.517   1.898   7.380  0.4284  0.1127 -0.6705
  905UNK    C01 8138  29.384   1.918   7.399 -0.8122  0.2528  0.2792
  905UNK    H02 8139  29.364   1.997   7.472 -3.1632  1.0177 -1.1292
  905UNK    C03 8140  29.293   1.862   7.320 -0.4049  0.7846  0.2212
  905UNK    C04 8141  29.148   1.880   7.352 -0.2955 -1.1557  0.6271
  905UNK    F05 8142  29.126   1.877   7.486 -0.4580 -0.3536 -0.3011
  905UNK    F06 8143  29.111   1.998   7.307  0.5529  0.1584 -0.3459
  905UNK    F07 8144  29.077   1.788   7.278  0.0300 -0.3334 -0.3765
  905UNK    H08 8145  29.323   1.788   7.247  0.2906 -0.4901  1.7900
  906UNK    F00 8146  27.930   2.091   8.551 -0.1370 -0.2898  0.3750
  906UNK    C01 8147  27.814   2.076   8.614  0.2957 -0.1487  0.1778
  906UNK    H02 8148  27.821   2.106   8.719 -0.3839  0.2376  0.1116
  906UNK    C03 8149  27.703   2.058   8.547 -0.4252  0.7864 -0.1722
  906UNK    C04 8150  27.573   2.096   8.611 -0.6068 -0.1258 -0.4076
  906UNK    F05 8151  27.539   2.226   8.604 -0.4764 -0.1974 -0.1427
  906UNK    F06 8152  27.467   2.032   8.556  0.3370 -0.0755 -0.0816
  906UNK    F07 8153  27.573   2.068   8.746 -0.0545  0.0171  0.1132
  906UNK    H08 8154  27.710   2.050   8.439  0.6876  3.6767 -0.3536
  907UNK    F00 8155  27.969   2.468   8.340 -0.2519  0.1197 -0.3223
  907UNK    C01 8156  27.879   2.397   8.411 -0.3662  0.2121 -0.3482
  907UNK    H02 8157  27.896   2.289   8.399  1.1368  0.2742  1.0896
  907UNK    C03 8158  27.762   2.461   8.429  0.1311 -0.1299 -0.0129
  907UNK    C04 8159  27.652   2.460   8.325  0.1380  0.2553  0.2453
  907UNK    F05 8160  27.677   2.448   8.189 -0.2734  0.6952  0.0079
  907UNK    F06 8161  27.583   2.350   8.367 -0.4058 -0.4704 -0.0873
  907UNK    F07 8162  27.577   2.569   8.359  0.1369 -0.2736 -0.5493
  907UNK    H08 8163  27.736   2.520   8.516 -0.3481  1.2799 -1.0827
  908UNK    F00 8164  27.461   0.640   4.030  0.4511  0.1891  0.4222
  908UNK    C01 8165  27.371   0.621   3.927  0.2905  0.3982  0.3951
  908UNK    H02 8166  27.272   0.664   3.946  0.0278  0.7341 -1.6220
  908UNK    C03 8167  27.395   0.524   3.844  0.3311 -0.2838 -0.4423
  908UNK    C04 8168  27.365   0.524   3.699 -0.1002  1.1507 -0.2700
  908UNK    F05 8169  27.240   0.561   3.669 -0.0636 -0.0946 -0.6508
  908UNK    F06 8170  27.448   0.609   3.636  0.1308  0.1284 -0.0296
  908UNK    F07 8171  27.404   0.403   3.650  0.3034 -0.3110 -0.0375
  908UNK    H08 8172  27.453   0.441   3.882 -0.7236 -0.1570  1.5440
  909UNK    F00 8173  28.877   4.252   3.924 -0.0921  0.0437 -0.0404
  909UNK    C01 8174  28.753   4.206   3.929  0.8316 -0.6823 -0.1721
  909UNK    H02 8175  28.689   4.252   4.005  1.7026  0.3733 -0.0699
  909UNK    C03 8176  28.718   4.109   3.847  0.8611  0.0104  0.0600
  909UNK    C04 8177  28.579   4.079   3.825  0.2272 -0.0749  0.2067
  909UNK    F05 8178  28.540   4.145   3.722 -0.1068 -0.0270 -0.1860
  909UNK    F06 8179  28.571   3.953   3.787 -0.6361  0.0778 -0.4749
  909UNK    F07 8180  28.494   4.114   3.927 -0.0743  0.1715 -0.0646
  909UNK    H08 8181  28.790   4.051   3.791 -0.2533 -0.8023 -0.5619
  910UNK    F00 8182  24.747   4.801   6.792  0.3390 -0.5928  0.2941
  910UNK    C01 8183  24.881   4.777   6.786 -0.7500  0.1255  0.0454
  910UNK    H02 8184  24.930   4.774   6.688 -2.8625  0.1953 -1.0512
  910UNK    C03 8185  24.950   4.755   6.896  0.5729 -0.4704  0.0507
  910UNK    C04 8186  24.968   4.617   6.945  0.2798 -0.4018  0.1294
  910UNK    F05 8187  25.070   4.546   6.889  0.1375 -0.0617 -0.3031
  910UNK    F06 8188  24.996   4.622   7.079  0.0133  0.4390 -0.1851
  910UNK    F07 8189  24.858   4.544   6.933  0.5893 -0.7165  0.2291
  910UNK    H08 8190  24.956   4.834   6.969 -1.9265 -0.4568  0.2834
  911UNK    F00 8191  25.145   1.538  10.649 -0.2501  0.0531 -0.3110
  911UNK    C01 8192  25.009   1.529  10.647  0.3369 -0.5477  0.2574
  911UNK    H02 8193  24.973   1.429  10.666  1.2940 -0.8108  0.7203
  911UNK    C03 8194  24.941   1.644  10.631 -0.4168 -0.1749  0.5149
  911UNK    C04 8195  24.922   1.711  10.500 -0.1671 -0.1440 -0.0021
  911UNK    F05 8196  25.038   1.711  10.423  0.4712 -0.4407  0.0843
  911UNK    F06 8197  24.827   1.646  10.426 -0.1427  0.1044 -0.3793
  911UNK    F07 8198  24.860   1.830  10.511  0.2898  0.5058  0.1729
  911UNK    H08 8199  24.940   1.723  10.706 -3.1402 -0.3727  0.7395
  912UNK    F00 8200  29.393   3.967   8.405  0.2493  0.5264 -0.3581
  912UNK    C01 8201  29.522   3.996   8.391  0.0352  0.0760  0.7137
  912UNK    H02 8202  29.572   3.936   8.315  0.4790  1.1631  0.1487
  912UNK    C03 8203  29.579   4.076   8.473  0.5961 -1.0667  0.3064
  912UNK    C04 8204  29.607   4.043   8.613  0.5115 -0.4778 -0.3964
  912UNK    F05 8205  29.615   4.156   8.686 -0.5261 -0.3269  0.4933
  912UNK    F06 8206  29.508   3.969   8.668  0.1312  0.0241  0.5138
  912UNK    F07 8207  29.726   3.983   8.634 -0.1118  0.0951  0.1201
  912UNK    H08 8208  29.570   4.182   8.454  2.4111 -0.7673  0.9168
  913UNK    F00 8209  28.539   0.456   4.862 -0.5636 -0.1146 -0.5952
  913UNK    C01 8210  28.622   0.487   4.966 -0.0402  0.3307 -0.1315
  913UNK    H02 8211  28.659   0.402   5.023 -0.5074  1.4471  1.8712
  913UNK    C03 8212  28.611   0.619   5.001 -0.0958  1.3708  0.8480
  913UNK    C04 8213  28.712   0.704   5.068 -0.4762 -0.1955 -0.1209
  913UNK    F05 8214  28.815   0.718   4.982  0.7153 -0.2510 -0.4902
  913UNK    F06 8215  28.670   0.830   5.099 -0.3929  0.2881 -0.0148
  913UNK    F07 8216  28.763   0.634   5.175  0.0859  0.5078  0.2032
  913UNK    H08 8217  28.527   0.669   4.955  1.3264  1.6732 -1.5334
  914UNK    F00 8218  26.713   1.886   9.259 -0.1586 -0.1911 -0.0094
  914UNK    C01 8219  26.728   1.754   9.276  0.3131 -0.4529 -0.1588
  914UNK    H02 8220  26.801   1.717   9.204  1.1694 -1.0922  1.0261
  914UNK    C03 8221  26.648   1.685   9.361 -0.0901 -0.0335  0.2188
  914UNK    C04 8222  26.701   1.597   9.466  0.3350  0.1764  0.5819
  914UNK    F05 8223  26.705   1.651   9.588 -0.2743  0.0676 -0.1646
  914UNK    F06 8224  26.630   1.484   9.477 -0.0174  0.4572  0.0767
  914UNK    F07 8225  26.828   1.560   9.436 -0.1819 -0.2396 -0.1642
  914UNK    H08 8226  26.565   1.747   9.391 -0.6627 -0.5084 -0.3839
  915UNK    F00 8227  25.572   3.433   8.258  0.1332  0.4353 -0.1571
  915UNK    C01 8228  25.447   3.481   8.268  0.5783 -0.4999 -0.1132
  915UNK    H02 8229  25.449   3.590   8.261  2.4006 -0.6621 -3.4720
  915UNK    C03 8230  25.343   3.411   8.310 -0.1262 -0.6658  0.0886
  915UNK    C04 8231  25.274   3.444   8.447 -0.0716 -0.2882 -0.2575
  915UNK    F05 8232  25.213   3.335   8.496 -0.2736 -0.3064 -0.1616
  915UNK    F06 8233  25.367   3.489   8.537  0.1311 -0.4172  0.2029
  915UNK    F07 8234  25.193   3.544   8.426 -0.0171 -0.4517  0.0359
  915UNK    H08 8235  25.293   3.337   8.249  0.5528 -0.1226 -1.1484
  916UNK    F00 8236  26.352   1.817   7.736 -0.1206 -0.2402  0.3371
  916UNK    C01 8237  26.291   1.919   7.674 -0.7005 -0.4310  0.4890
  916UNK    H02 8238  26.366   1.981   7.623  2.1613 -0.5049  4.3869
  916UNK    C03 8239  26.167   1.956   7.701  0.1446 -0.0271  0.0757
  916UNK    C04 8240  26.065   1.855   7.738 -0.3804  0.7963  1.2809
  916UNK    F05 8241  26.052   1.845   7.872  0.2115 -0.1919  0.2732
  916UNK    F06 8242  25.947   1.909   7.699 -0.0522 -0.3984 -0.7363
  916UNK    F07 8243  26.077   1.730   7.688 -0.2292 -0.4730  0.1763
  916UNK    H08 8244  26.126   2.052   7.675 -0.5607 -0.8442 -1.9283
  917UNK    F00 8245  26.685   4.109   4.987  0.7320 -0.2701 -0.2785
  917UNK    C01 8246  26.776   4.207   4.981  0.4933  0.0474  0.2158
  917UNK    H02 8247  26.772   4.272   4.893  3.1930 -0.5525 -0.4071
  917UNK    C03 8248  26.874   4.207   5.072 -0.2822  0.2061 -0.2548
  917UNK    C04 8249  26.846   4.172   5.213  0.8273  0.2421 -0.5056
  917UNK    F05 8250  26.714   4.192   5.252 -0.5674  0.2161  0.2960
  917UNK    F06 8251  26.898   4.048   5.232  0.0734  0.3217 -0.0594
  917UNK    F07 8252  26.937   4.256   5.273 -0.0857 -0.0051 -0.2046
  917UNK    H08 8253  26.957   4.275   5.061 -0.6315  0.3593 -2.2042
  918UNK    F00 8254  26.923   2.896   6.964 -0.1155  0.2443  0.2957
  918UNK    C01 8255  26.906   2.827   6.852  0.0328 -0.6929 -0.7180
  918UNK    H02 8256  26.937   2.726   6.875 -1.1498 -1.1502 -1.1120
  918UNK    C03 8257  26.851   2.864   6.741  0.2127 -0.0142 -0.0518
  918UNK    C04 8258  26.928   2.919   6.628 -0.2581 -0.0125 -0.2802
  918UNK    F05 8259  27.015   3.019   6.661  0.5004  0.0762 -0.0491
  918UNK    F06 8260  27.002   2.827   6.564  0.3114  0.3142 -0.3657
  918UNK    F07 8261  26.837   2.958   6.537 -0.5223 -0.3084 -0.1610
  918UNK    H08 8262  26.749   2.899   6.748  0.4655  0.6751  0.2932
  919UNK    F00 8263  27.284   0.808   7.482 -0.5387 -0.3780 -0.4110
  919UNK    C01 8264  27.270   0.769   7.608  0.6265  0.2543  0.4852
  919UNK    H02 8265  27.177   0.795   7.658 -0.0469 -0.8294 -0.1763
  919UNK    C03 8266  27.382   0.730   7.669  0.1282 -0.8200  0.2441
  919UNK    C04 8267  27.476   0.832   7.717 -0.5460 -0.0718 -1.2005
  919UNK    F05 8268  27.590   0.776   7.762 -0.0665  0.1918 -0.1631
  919UNK    F06 8269  27.524   0.923   7.624  0.1386  0.1252 -0.0044
  919UNK    F07 8270  27.435   0.915   7.811 -0.2603  0.1907 -0.2644
  919UNK    H08 8271  27.415   0.628   7.686  1.3386 -0.4776  0.0329
  920UNK    F00 8272  24.402   0.835   9.433 -0.3576 -0.0735 -0.3353
  920UNK    C01 8273  24.281   0.788   9.470  0.1848  0.0735 -0.1836
  920UNK    H02 8274  24.269   0.751   9.572  1.6288 -0.2117 -0.1129
  920UNK    C03 8275  24.201   0.757   9.366 -0.7868 -0.2367  0.4288
  920UNK    C04 8276  24.057   0.738   9.386  0.3439 -0.4862 -0.0804
  920UNK    F05 8277  24.022   0.635   9.475  0.8374 -0.3843 -0.4124
  920UNK    F06 8278  23.995   0.849   9.435 -0.3164  0.2679  0.1861
  920UNK    F07 8279  23.997   0.706   9.270 -0.3493  0.3220  0.6778
  920UNK    H08 8280  24.228   0.784   9.265 -2.1873  0.1158  0.1358
  921UNK    F00 8281  26.572   1.044  13.849  0.0113  0.1537  0.7716
  921UNK    C01 8282  26.510   0.939  13.909 -0.2948 -0.3255  0.6539
  921UNK    H02 8283  26.579   0.855  13.913 -1.5216 -1.4075 -0.6002
  921UNK    C03 8284  26.398   0.956  13.978 -0.0040  0.3626  0.4953
  921UNK    C04 8285  26.317   0.850  14.049 -0.1047  0.7258  0.4782
  921UNK    F05 8286  26.375   0.821  14.169 -0.1212 -0.5595  0.4866
  921UNK    F06 8287  26.195   0.893  14.083  0.0412 -0.4680 -0.4150
  921UNK    F07 8288  26.308   0.733  13.979 -0.0276 -0.2890 -0.1009
  921UNK    H08 8289  26.361   1.057  13.985 -2.2571 -0.3506 -0.6884
  922UNK    F00 8290  23.688   3.675   6.385 -0.8720  0.1941 -0.3576
  922UNK    C01 8291  23.747   3.743   6.283  0.4925 -0.4454 -0.0441
  922UNK    H02 8292  23.678   3.785   6.209 -0.0554  1.5459  1.5690
  922UNK    C03 8293  23.879   3.733   6.266  0.1196 -0.3476  0.1168
  922UNK    C04 8294  23.956   3.819   6.178  0.3374  0.0953 -1.1165
  922UNK    F05 8295  23.964   3.953   6.226 -0.0795  0.0911  0.3147
  922UNK    F06 8296  24.083   3.773   6.190  0.1372  0.4529 -0.3760
  922UNK    F07 8297  23.920   3.826   6.047 -0.3941 -0.0623  0.1728
  922UNK    H08 8298  23.940   3.670   6.329  0.8181  1.2264  1.0511
  923UNK    F00 8299  24.998   1.479   6.057  0.2789 -0.1008 -0.1723
  923UNK    C01 8300  25.056   1.593   6.021 -0.0540 -0.3579 -0.4416
  923UNK    H02 8301  24.999   1.643   5.942 -2.0103  0.6008  1.5176
  923UNK    C03 8302  25.179   1.610   6.066 -0.6207 -0.5316  0.7020
  923UNK    C04 8303  25.229   1.737   6.121 -0.1110  0.5324 -0.1894
  923UNK    F05 8304  25.178   1.851   6.070  0.0594 -0.0244  0.2817
  923UNK    F06 8305  25.205   1.749   6.258  0.2802  0.6081  0.2835
  923UNK    F07 8306  25.364   1.747   6.103 -0.1220  0.0442 -0.0197
  923UNK    H08 8307  25.219   1.520   6.110 -1.8504 -1.8948 -0.9037
  924UNK    F00 8308  28.504   4.017   8.476 -0.3331  0.1587  0.3670
  924UNK    C01 8309  28.379   4.043   8.513 -0.1986 -1.0836 -0.4851
  924UNK    H02 8310  28.305   4.018   8.436 -0.8594 -1.1044  0.1506
  924UNK    C03 8311  28.358   4.063   8.643 -0.2814 -0.1061  0.8922
  924UNK    C04 8312  28.386   4.196   8.706 -0.5840  0.2151  0.0927
  924UNK    F05 8313  28.494   4.254   8.643 -0.2346  0.3808  0.0640
  924UNK    F06 8314  28.287   4.289   8.706 -0.2722 -0.6666  0.1829
  924UNK    F07 8315  28.427   4.172   8.834  0.3044 -0.5095 -0.6634
  924UNK    H08 8316  28.355   3.975   8.706  0.6282 -1.5092 -0.9762
  925UNK    F00 8317  28.900   2.069   7.757 -0.2517  0.5422  0.1097
  925UNK    C01 8318  28.885   2.117   7.631 -0.1856  0.2188 -0.2987
  925UNK    H02 8319  28.958   2.189   7.595 -0.7227  1.3446  0.8612
  925UNK    C03 8320  28.785   2.070   7.552 -0.4978  0.9081  1.2286
  925UNK    C04 8321  28.756   2.126   7.419  0.1328 -0.2351  0.4606
  925UNK    F05 8322  28.640   2.194   7.427 -0.0176  0.2910 -0.3570
  925UNK    F06 8323  28.842   2.218   7.378  0.5894 -0.6150  0.1422
  925UNK    F07 8324  28.729   2.043   7.318 -0.2490  0.3804 -0.3466
  925UNK    H08 8325  28.693   2.038   7.599 -0.0260 -2.0878  0.2227
  926UNK    F00 8326  26.047   4.713   8.147  0.1830  0.2763  0.3354
  926UNK    C01 8327  26.138   4.810   8.168  0.5902 -0.5609  0.7713
  926UNK    H02 8328  26.208   4.790   8.249 -0.2858  1.0949  1.9793
  926UNK    C03 8329  26.116   4.920   8.104 -0.2455 -0.6292  0.3901
  926UNK    C04 8330  26.231   5.006   8.078 -0.2730  0.0411  0.2106
  926UNK    F05 8331  26.168   5.119   8.037 -0.3571  0.4789 -0.1726
  926UNK    F06 8332  26.298   5.028   8.192 -0.0756  0.0268 -0.1753
  926UNK    F07 8333  26.331   4.965   7.996 -0.0156 -0.2801  0.4078
  926UNK    H08 8334  26.023   4.975   8.113 -0.8213 -1.1237 -2.1136
  927UNK    F00 8335  25.205   1.578   8.666  0.6904 -0.3782  0.0282
  927UNK    C01 8336  25.274   1.616   8.772 -0.0526  0.4139  0.3577
  927UNK    H02 8337  25.363   1.552   8.779 -1.3103 -1.8774 -3.1376
  927UNK    C03 8338  25.215   1.678   8.869  0.4364 -0.1996 -0.4483
  927UNK    C04 8339  25.279   1.769   8.962 -0.3011 -0.2404  0.3034
  927UNK    F05 8340  25.213   1.791   9.078 -0.2968 -0.1282 -0.0528
  927UNK    F06 8341  25.399   1.724   9.002 -0.3740  0.2564  0.0555
  927UNK    F07 8342  25.286   1.890   8.912 -0.0330  0.1075  0.3414
  927UNK    H08 8343  25.110   1.696   8.849  0.7464  0.5554 -1.4033
  928UNK    F00 8344  25.192   1.569   6.640  0.4587 -0.2119  0.1609
  928UNK    C01 8345  25.175   1.670   6.551  0.2504  0.3859  0.5800
  928UNK    H02 8346  25.264   1.733   6.555  0.2207  0.3671  1.7843
  928UNK    C03 8347  25.047   1.715   6.537  0.0137  0.6260 -0.6899
  928UNK    C04 8348  24.980   1.832   6.593 -0.4690  0.1296 -0.6408
  928UNK    F05 8349  25.050   1.884   6.697  0.2794 -0.0433  0.1865
  928UNK    F06 8350  24.968   1.931   6.500 -0.0190 -0.6054  0.0043
  928UNK    F07 8351  24.854   1.801   6.638 -0.1311 -0.4259 -0.6915
  928UNK    H08 8352  24.976   1.664   6.475 -1.2482  2.4980 -0.8008
  929UNK    F00 8353  23.652   4.331   8.484  0.8798  0.1224 -0.2384
  929UNK    C01 8354  23.620   4.287   8.366  0.2684 -0.0823  0.4177
  929UNK    H02 8355  23.523   4.237   8.379  0.1511  0.2571  0.8642
  929UNK    C03 8356  23.697   4.304   8.255 -0.1589  0.2949  0.8630
  929UNK    C04 8357  23.660   4.292   8.112 -0.2068 -0.4237  0.1089
  929UNK    F05 8358  23.772   4.278   8.036 -0.3592  0.1974  0.0954
  929UNK    F06 8359  23.564   4.195   8.089 -0.0242 -0.3132 -0.0894
  929UNK    F07 8360  23.605   4.411   8.071 -0.4159 -0.0650 -0.4910
  929UNK    H08 8361  23.786   4.365   8.265  2.1442 -2.9251  0.6232
  930UNK    F00 8362  24.791   1.201   6.045  0.4163 -0.2673 -0.4084
  930UNK    C01 8363  24.757   1.265   5.933 -0.3188  0.5564 -0.3750
  930UNK    H02 8364  24.759   1.374   5.943  2.9410  0.5988 -0.7923
  930UNK    C03 8365  24.709   1.193   5.831 -0.0527  0.0004  0.4970
  930UNK    C04 8366  24.720   1.245   5.695 -0.1929  0.1913 -0.2674
  930UNK    F05 8367  24.852   1.249   5.663 -0.2909  0.3750  0.3076
  930UNK    F06 8368  24.652   1.166   5.610  0.2747  0.8881 -0.0970
  930UNK    F07 8369  24.663   1.370   5.697  0.5316  0.3344 -0.1064
  930UNK    H08 8370  24.621   1.133   5.851 -1.6761  1.7507 -1.1840
  931UNK    F00 8371  26.466   4.473   8.633 -0.0610  0.3129 -0.0284
  931UNK    C01 8372  26.538   4.525   8.536 -0.1274  0.2244  0.0135
  931UNK    H02 8373  26.610   4.455   8.493 -1.3107  0.2907 -2.1075
  931UNK    C03 8374  26.520   4.649   8.490 -0.5914 -0.1880 -0.6176
  931UNK    C04 8375  26.534   4.683   8.353  0.2859  0.2680 -0.3943
  931UNK    F05 8376  26.452   4.603   8.273 -0.1750 -0.7643 -0.0310
  931UNK    F06 8377  26.507   4.814   8.330  0.0737  0.0301 -0.2087
  931UNK    F07 8378  26.663   4.652   8.339  0.1219  0.0715 -0.6945
  931UNK    H08 8379  26.481   4.733   8.546 -1.9067 -1.8043  0.9576
  932UNK    F00 8380  24.427   1.355   9.250 -0.1507  0.3237 -0.2770
  932UNK    C01 8381  24.416   1.491   9.246 -0.5823  0.4537  0.1077
  932UNK    H02 8382  24.346   1.531   9.172  0.9144  1.8330 -0.6193
  932UNK    C03 8383  24.527   1.558   9.280 -1.0235  0.1339  0.4259
  932UNK    C04 8384  24.525   1.701   9.331  0.1717  0.1001  0.3827
  932UNK    F05 8385  24.412   1.769   9.300  0.0983  0.2629 -0.4398
  932UNK    F06 8386  24.563   1.706   9.463  0.5526 -0.4028  0.7239
  932UNK    F07 8387  24.628   1.756   9.261  0.1404 -0.5001  0.3287
  932UNK    H08 8388  24.625   1.516   9.294 -1.2680 -0.5938  0.0112
  933UNK    F00 8389  22.778   3.521   8.130  0.2548 -0.4886 -0.2746
  933UNK    C01 8390  22.875   3.488   8.218 -0.1600  0.2726 -0.5298
  933UNK    H02 8391  22.868   3.526   8.320 -2.5326 -1.7299  0.0846
  933UNK    C03 8392  22.977   3.414   8.170  0.3855  0.4884 -0.0760
  933UNK    C04 8393  23.106   3.403   8.244  0.5198 -0.5012  0.7730
  933UNK    F05 8394  23.105   3.359   8.369  0.4478 -0.0982 -0.3180
  933UNK    F06 8395  23.191   3.315   8.186  0.4393 -0.3573 -0.0264
  933UNK    F07 8396  23.155   3.525   8.233  0.0556  0.9687  0.1351
  933UNK    H08 8397  22.941   3.322   8.127  0.6901  0.5534 -0.4745
  934UNK    F00 8398  26.717   2.863   7.198  0.0492  0.3916  0.3282
  934UNK    C01 8399  26.607   2.790   7.231 -0.4895 -0.6201  0.2333
  934UNK    H02 8400  26.549   2.836   7.311  1.2307  1.4617  0.3404
  934UNK    C03 8401  26.590   2.675   7.163 -0.3093 -0.4108 -0.2779
  934UNK    C04 8402  26.635   2.651   7.028  0.0864 -0.4380  0.2092
  934UNK    F05 8403  26.633   2.753   6.936  0.2810  0.3715  0.0431
  934UNK    F06 8404  26.757   2.588   7.032 -0.1976  0.2900  0.0221
  934UNK    F07 8405  26.545   2.561   6.980  0.0873  0.1607  0.0790
  934UNK    H08 8406  26.527   2.598   7.206 -0.5431  0.3865  0.8134
  935UNK    F00 8407  29.185   4.560  10.187  0.1804 -0.1113  0.6416
  935UNK    C01 8408  29.285   4.634  10.231 -0.0762  0.1552  0.2304
  935UNK    H02 8409  29.382   4.585  10.242 -0.4923 -0.5617  0.6933
  935UNK    C03 8410  29.253   4.759  10.257 -0.4195  0.4312 -0.0943
  935UNK    C04 8411  29.334   4.874  10.210 -0.2948 -0.8205  0.6049
  935UNK    F05 8412  29.294   4.988  10.267 -0.1302  0.1132  0.0488
  935UNK    F06 8413  29.462   4.858  10.245 -0.3751  0.3380  0.2377
  935UNK    F07 8414  29.326   4.886  10.071 -0.0324 -0.0487 -0.3978
  935UNK    H08 8415  29.158   4.776  10.305  0.0517 -0.5982  1.2183
  936UNK    F00 8416  29.818   3.570   6.240  0.0036  0.0855 -0.0624
  936UNK    C01 8417  29.800   3.444   6.198  0.4026  0.0502  0.1854
  936UNK    H02 8418  29.695   3.422   6.183  0.5616 -1.6083  1.4019
  936UNK    C03 8419  29.905   3.367   6.173  0.1022 -0.1673  0.6516
  936UNK    C04 8420  29.893   3.224   6.122  0.3587 -0.2193  0.4124
  936UNK    F05 8421  30.003   3.149   6.115  0.3259 -0.4235  0.5309
  936UNK    F06 8422  29.807   3.148   6.198  0.2478  0.2374 -0.7477
  936UNK    F07 8423  29.831   3.239   5.999  0.2161 -0.0245  0.5351
  936UNK    H08 8424  30.000   3.408   6.139  0.3187 -1.3606 -0.2409
  937UNK    F00 8425  27.613   1.497   5.986  0.5292 -0.2016 -0.1645
  937UNK    C01 8426  27.686   1.588   5.929 -0.6745  0.5843  0.3229
  937UNK    H02 8427  27.639   1.651   5.854  1.9110  0.8151 -1.1928
  937UNK    C03 8428  27.819   1.580   5.942  0.3036  0.0726 -0.1788
  937UNK    C04 8429  27.917   1.687   5.909 -0.2524 -0.4534 -0.2846
  937UNK    F05 8430  27.878   1.788   5.826  0.7026 -0.0982 -0.1366
  937UNK    F06 8431  27.942   1.751   6.024  0.4436 -0.3930  0.0783
  937UNK    F07 8432  28.037   1.634   5.876 -0.5208  0.0664  0.2958
  937UNK    H08 8433  27.860   1.482   5.967 -0.5549 -0.4868 -0.9585
  938UNK    F00 8434  25.023   0.806   8.857  0.0753  0.3193 -0.2005
  938UNK    C01 8435  25.052   0.679   8.828  0.1731  0.0205  0.1173
  938UNK    H02 8436  24.962   0.621   8.847  0.7304 -0.2916  1.9042
  938UNK    C03 8437  25.171   0.647   8.773  0.7919 -0.7664  0.3957
  938UNK    C04 8438  25.184   0.525   8.691  0.1020  0.0560  0.9580
  938UNK    F05 8439  25.306   0.520   8.633  0.1902  0.0439 -1.0464
  938UNK    F06 8440  25.155   0.414   8.761 -0.1914  0.1930  0.6531
  938UNK    F07 8441  25.093   0.523   8.588  0.5762  0.4873 -0.6540
  938UNK    H08 8442  25.227   0.725   8.722 -1.2001 -1.4397 -2.9581
  939UNK    F00 8443  27.279   1.302   6.367  0.2831 -0.7539 -0.2076
  939UNK    C01 8444  27.229   1.358   6.259 -0.0545 -1.3274  0.0170
  939UNK    H02 8445  27.188   1.457   6.282 -0.3538 -1.3126 -0.5820
  939UNK    C03 8446  27.211   1.295   6.143 -0.4360  0.9463  0.0130
  939UNK    C04 8447  27.205   1.339   6.002 -0.7320 -0.2373 -0.1214
  939UNK    F05 8448  27.327   1.386   5.957 -0.0256  0.3982 -0.2172
  939UNK    F06 8449  27.165   1.227   5.927 -0.3113  0.0312 -0.4892
  939UNK    F07 8450  27.115   1.439   5.987  0.4785 -0.0854  0.7646
  939UNK    H08 8451  27.162   1.200   6.159 -0.5832  1.2294  1.3041
  940UNK    F00 8452  27.497   1.701   8.146  0.5124 -0.0238  0.1638
  940UNK    C01 8453  27.591   1.799   8.139  0.6970 -0.0830  0.0159
  940UNK    H02 8454  27.537   1.893   8.150  1.6365  0.4039  0.4217
  940UNK    C03 8455  27.722   1.778   8.141 -0.0868 -0.4033  0.6147
  940UNK    C04 8456  27.821   1.871   8.189  0.3974 -0.6669 -0.0404
  940UNK    F05 8457  27.844   1.856   8.320 -0.1445  0.1832 -0.3147
  940UNK    F06 8458  27.941   1.854   8.137  0.1557  0.3913  0.3316
  940UNK    F07 8459  27.773   2.000   8.161  0.3335  0.3409  0.3820
  940UNK    H08 8460  27.765   1.709   8.071  1.4015  1.4463 -0.3138
  941UNK    F00 8461  24.954   4.673   4.170  0.6790  0.5207 -0.0140
  941UNK    C01 8462  25.086   4.657   4.200 -0.1936 -0.3905  0.2905
  941UNK    H02 8463  25.135   4.661   4.103  0.0437 -0.9144  0.3881
  941UNK    C03 8464  25.107   4.579   4.306 -0.5226  0.1287  0.3764
  941UNK    C04 8465  25.242   4.565   4.360  0.1668  1.0332  0.3755
  941UNK    F05 8466  25.222   4.521   4.487  0.2375  0.0708 -0.4434
  941UNK    F06 8467  25.309   4.468   4.288  0.1059  0.3417  0.0385
  941UNK    F07 8468  25.327   4.671   4.350  0.0365 -0.3130 -0.3884
  941UNK    H08 8469  25.044   4.496   4.332  0.6366 -0.7895  0.2998
  942UNK    F00 8470  27.244   0.815   7.937 -0.2405  0.3179 -0.0869
  942UNK    C01 8471  27.133   0.890   7.938 -0.2386 -0.1523 -0.1388
  942UNK    H02 8472  27.139   0.975   7.871  0.0477 -0.4767 -0.5247
  942UNK    C03 8473  27.034   0.871   8.025 -0.1948  1.1627  0.5056
  942UNK    C04 8474  26.897   0.849   7.984  0.1686 -0.2466  0.2919
  942UNK    F05 8475  26.854   0.941   7.899 -0.0786 -0.2565  0.1680
  942UNK    F06 8476  26.886   0.730   7.918  0.6601  0.3228 -0.2577
  942UNK    F07 8477  26.794   0.866   8.076  0.0809 -0.3338 -0.3442
  942UNK    H08 8478  27.047   0.803   8.107  0.3284  2.2033  1.2883
  943UNK    F00 8479  25.631   3.177   4.820 -0.2457 -0.0642 -0.1667
  943UNK    C01 8480  25.738   3.196   4.891  0.2425 -0.1069 -0.6420
  943UNK    H02 8481  25.768   3.299   4.909 -2.5826  0.6544 -0.1351
  943UNK    C03 8482  25.788   3.085   4.949  0.0017  0.0339 -0.0571
  943UNK    C04 8483  25.882   3.089   5.065 -0.0264 -0.1604  0.5272
  943UNK    F05 8484  25.986   3.172   5.039  0.4831  0.3925  0.3031
  943UNK    F06 8485  25.816   3.149   5.167  0.1710 -0.1627 -0.0512
  943UNK    F07 8486  25.931   2.968   5.102  0.7860  0.1925  0.1384
  943UNK    H08 8487  25.797   3.000   4.883  0.2858  0.5232 -0.6477
  944UNK    F00 8488  25.903   0.714   7.936 -0.3020  0.3125  0.1964
  944UNK    C01 8489  25.875   0.620   7.845 -0.2246  0.0060  0.4956
  944UNK    H02 8490  25.940   0.615   7.758 -1.3016 -0.5821 -0.2870
  944UNK    C03 8491  25.809   0.513   7.890  0.4432  0.1008  0.7695
  944UNK    C04 8492  25.774   0.395   7.817  0.2017  0.1329 -0.5536
  944UNK    F05 8493  25.881   0.313   7.814 -0.3072 -0.1482  0.1643
  944UNK    F06 8494  25.669   0.330   7.872 -0.0987 -0.0424 -0.5934
  944UNK    F07 8495  25.748   0.420   7.686  0.7154 -0.2641  0.4692
  944UNK    H08 8496  25.729   0.537   7.958 -0.2414  0.5494 -0.1764
  945UNK    F00 8497  27.341   1.131   4.667  0.2592 -0.3022  0.2576
  945UNK    C01 8498  27.307   1.237   4.595 -0.3911 -0.8500  0.2005
  945UNK    H02 8499  27.282   1.201   4.495 -0.2694 -1.4954  0.4015
  945UNK    C03 8500  27.281   1.354   4.651  0.1753  0.2202 -0.0957
  945UNK    C04 8501  27.174   1.438   4.598 -0.4026 -0.2673 -0.2308
  945UNK    F05 8502  27.053   1.400   4.642  0.6710  0.7018 -0.2827
  945UNK    F06 8503  27.193   1.572   4.635 -0.0754  0.0405  0.2078
  945UNK    F07 8504  27.170   1.431   4.460  0.4398  0.2862 -0.0943
  945UNK    H08 8505  27.277   1.356   4.758  1.8137  0.7326 -0.0258
  946UNK    F00 8506  26.161   1.517   6.547  0.1810  0.5088 -0.3645
  946UNK    C01 8507  26.225   1.564   6.439 -0.2876 -0.7081 -0.2082
  946UNK    H02 8508  26.252   1.670   6.443 -0.8043 -0.6071  0.6174
  946UNK    C03 8509  26.278   1.472   6.361 -1.1306  0.0931 -0.5872
  946UNK    C04 8510  26.410   1.489   6.300  0.1082 -0.0684 -0.2115
  946UNK    F05 8511  26.430   1.390   6.209  0.2340 -0.3791 -0.2055
  946UNK    F06 8512  26.414   1.603   6.228  0.2126  0.0644  0.0073
  946UNK    F07 8513  26.511   1.485   6.387  0.0128  0.1489 -0.4592
  946UNK    H08 8514  26.233   1.375   6.347  0.9451 -0.6732 -2.2195
  947UNK    F00 8515  26.508   2.803   6.150 -0.0861 -0.0445 -0.0720
  947UNK    C01 8516  26.485   2.755   6.030  0.0016 -0.3176 -0.3293
  947UNK    H02 8517  26.389   2.704   6.018  0.1376 -0.4772 -0.7793
  947UNK    C03 8518  26.591   2.773   5.946  0.3612 -0.0161 -0.3353
  947UNK    C04 8519  26.585   2.753   5.799 -0.0572 -0.2854  0.0514
  947UNK    F05 8520  26.562   2.874   5.739 -0.0581  0.0699 -0.4927
  947UNK    F06 8521  26.699   2.695   5.755 -0.3464  0.1124 -0.7121
  947UNK    F07 8522  26.480   2.683   5.744 -0.0379 -0.2779 -0.6853
  947UNK    H08 8523  26.690   2.790   5.987 -0.1412 -2.4197  2.0301
  948UNK    F00 8524  27.640   3.827   7.642  0.3880  0.5567 -0.0068
  948UNK    C01 8525  27.615   3.808   7.519 -0.2028 -0.0475  0.6444
  948UNK    H02 8526  27.508   3.818   7.499 -0.4085 -0.4065  1.5779
  948UNK    C03 8527  27.693   3.725   7.462 -0.4712  0.0385  0.3941
  948UNK    C04 8528  27.678   3.682   7.322  0.3865  0.0625  0.7832
  948UNK    F05 8529  27.546   3.662   7.297 -0.2837  0.0507 -0.1678
  948UNK    F06 8530  27.730   3.769   7.232  0.2967  0.0556  0.0772
  948UNK    F07 8531  27.748   3.568   7.293  0.1573  0.1944 -0.2987
  948UNK    H08 8532  27.767   3.668   7.516 -1.5373 -1.4761  0.2617
  949UNK    F00 8533  27.751   2.743   9.711  0.2832 -0.2105  0.2735
  949UNK    C01 8534  27.830   2.856   9.713  0.1284 -0.8336 -0.1154
  949UNK    H02 8535  27.931   2.838   9.752 -0.0593 -0.9574  0.3153
  949UNK    C03 8536  27.758   2.967   9.717  0.8732 -0.9669  0.0061
  949UNK    C04 8537  27.719   3.039   9.841 -0.0986  0.0245  0.1237
  949UNK    F05 8538  27.640   3.151   9.814 -0.2889  0.4533  0.2555
  949UNK    F06 8539  27.659   2.953   9.928  0.2112 -0.2998 -0.0428
  949UNK    F07 8540  27.826   3.087   9.903 -0.4652 -0.0863 -0.6929
  949UNK    H08 8541  27.718   3.015   9.629  0.3959 -0.5281  0.4548
  950UNK    F00 8542  27.016   4.229  10.310  0.0858  0.0944  0.2106
  950UNK    C01 8543  27.098   4.258  10.403  0.3425  0.2177  0.6412
  950UNK    H02 8544  27.181   4.311  10.356  0.5357 -1.6965 -1.2477
  950UNK    C03 8545  27.086   4.214  10.523 -0.1352  0.1138  0.6908
  950UNK    C04 8546  27.179   4.251  10.624 -0.4443 -0.1855  0.9779
  950UNK    F05 8547  27.169   4.165  10.727  0.3838 -0.3001  0.4713
  950UNK    F06 8548  27.305   4.228  10.575  0.0178 -0.2854  0.3470
  950UNK    F07 8549  27.186   4.384  10.654 -0.4451 -0.1522 -0.0069
  950UNK    H08 8550  26.998   4.160  10.556  0.6237 -1.3351  0.3926
  951UNK    F00 8551  30.063   1.892   7.256 -0.5778  0.1447 -0.4840
  951UNK    C01 8552  29.977   1.839   7.174 -0.5770  0.2220  0.2166
  951UNK    H02 8553  30.031   1.763   7.117  1.1244  2.0474 -0.6482
  951UNK    C03 8554  29.863   1.904   7.146 -0.1924 -0.0843  0.8390
  951UNK    C04 8555  29.751   1.831   7.082 -0.3073 -0.3780  0.1242
  951UNK    F05 8556  29.705   1.755   7.178 -0.4261  0.4204  0.7752
  951UNK    F06 8557  29.663   1.921   7.035 -0.1847 -0.5339 -0.1388
  951UNK    F07 8558  29.794   1.759   6.977  0.0524  0.0598  0.2028
  951UNK    H08 8559  29.835   1.993   7.199  1.5531  0.4028  0.9837
  952UNK    F00 8560  25.859   5.073   3.352  0.2217  0.1961 -0.2181
  952UNK    C01 8561  25.746   5.073   3.283 -0.7721  0.1648  0.2693
  952UNK    H02 8562  25.749   4.980   3.226 -2.8906 -0.3727  0.9892
  952UNK    C03 8563  25.669   5.176   3.257 -0.4805  0.1318 -0.1693
  952UNK    C04 8564  25.523   5.156   3.274 -0.2632 -0.3794  0.2313
  952UNK    F05 8565  25.495   5.025   3.278  0.4076 -0.2380  0.1168
  952UNK    F06 8566  25.506   5.204   3.402 -0.1744 -0.2582 -0.1538
  952UNK    F07 8567  25.447   5.222   3.191 -0.3033  0.3801 -0.0930
  952UNK    H08 8568  25.703   5.277   3.243  0.4682 -0.4035 -1.9048
  953UNK    F00 8569  24.803   1.388   8.302  0.1856  0.4381  0.1039
  953UNK    C01 8570  24.779   1.519   8.271  0.3764  0.0896 -0.7888
  953UNK    H02 8571  24.865   1.571   8.313 -0.1309  0.3748 -0.1110
  953UNK    C03 8572  24.710   1.574   8.171 -0.0512 -0.2754  0.6350
  953UNK    C04 8573  24.713   1.494   8.041  0.1133  0.3851 -1.0570
  953UNK    F05 8574  24.649   1.556   7.942  0.3169 -0.5234  0.1593
  953UNK    F06 8575  24.831   1.462   7.996 -0.1235  0.2876 -0.2638
  953UNK    F07 8576  24.644   1.381   8.075  0.0382 -0.5505  0.6852
  953UNK    H08 8577  24.705   1.681   8.160  0.6874 -0.2710  0.3317
  954UNK    F00 8578  26.917   1.524   8.500 -0.1151  0.4249 -0.1549
  954UNK    C01 8579  26.939   1.415   8.576  0.2948 -0.7455 -0.1023
  954UNK    H02 8580  26.916   1.424   8.682 -0.1985  0.4856 -0.3012
  954UNK    C03 8581  27.009   1.329   8.505 -0.2276  0.4574  0.2590
  954UNK    C04 8582  27.155   1.340   8.522 -0.8217 -0.6556  0.3201
  954UNK    F05 8583  27.217   1.259   8.443  0.0185 -0.4161  0.0629
  954UNK    F06 8584  27.209   1.465   8.503 -0.0677  0.0399 -0.1953
  954UNK    F07 8585  27.175   1.305   8.653 -0.3691  0.0039  0.0127
  954UNK    H08 8586  26.985   1.301   8.404  2.2865  1.5790 -0.7036
  955UNK    F00 8587  25.581   4.773   6.193 -0.2302  0.1060  0.0085
  955UNK    C01 8588  25.534   4.875   6.270 -0.4854  0.5223 -0.0565
  955UNK    H02 8589  25.435   4.913   6.246 -0.4185 -0.1389 -1.4303
  955UNK    C03 8590  25.583   4.878   6.394 -0.0596  0.4105  1.0787
  955UNK    C04 8591  25.504   4.851   6.516  0.0532 -0.1929  0.1326
  955UNK    F05 8592  25.386   4.918   6.501  0.4350  0.6193 -0.6437
  955UNK    F06 8593  25.477   4.719   6.528 -0.1305  0.6240  0.4913
  955UNK    F07 8594  25.565   4.882   6.633  0.1083  0.3309  0.4723
  955UNK    H08 8595  25.688   4.861   6.407 -0.0910 -0.8943 -0.2273
  956UNK    F00 8596  26.085   0.979   4.190 -0.0601 -0.1113 -0.6370
  956UNK    C01 8597  26.110   0.851   4.173 -0.6040  0.1247 -0.5693
  956UNK    H02 8598  26.173   0.842   4.085 -1.0758 -0.3828 -0.8552
  956UNK    C03 8599  26.119   0.787   4.287  0.7087  0.1410 -0.4339
  956UNK    C04 8600  26.203   0.667   4.317 -0.1174 -0.4051 -0.2786
  956UNK    F05 8601  26.207   0.569   4.218  0.0565 -0.3203 -0.2207
  956UNK    F06 8602  26.331   0.699   4.326 -0.0671 -0.2179  0.2958
  956UNK    F07 8603  26.168   0.596   4.425 -0.2402  0.2998  0.4279
  956UNK    H08 8604  26.077   0.832   4.376 -0.9872  1.1699 -1.7247
  957UNK    F00 8605  25.544   3.097  10.558  0.3257 -0.2365  0.0661
  957UNK    C01 8606  25.487   2.991  10.488  0.6177  0.0755  0.1019
  957UNK    H02 8607  25.388   3.016  10.448  0.1535 -0.7404  0.7305
  957UNK    C03 8608  25.557   2.882  10.476 -0.0378  1.3524  0.1521
  957UNK    C04 8609  25.539   2.775  10.374  0.4292  0.7357 -0.8233
  957UNK    F05 8610  25.408   2.729  10.373  0.4146  0.8444  0.4052
  957UNK    F06 8611  25.559   2.817  10.243  0.1343  0.6215 -0.0850
  957UNK    F07 8612  25.610   2.664  10.394  0.0970 -0.6109  0.0387
  957UNK    H08 8613  25.583   2.838  10.571 -0.1195  1.7775  0.3723
  958UNK    F00 8614  24.685   2.764   5.163  0.2311 -0.6582 -0.0988
  958UNK    C01 8615  24.667   2.880   5.224 -0.7248 -0.6670 -0.0400
  958UNK    H02 8616  24.563   2.912   5.226 -0.8691 -1.0290 -1.3312
  958UNK    C03 8617  24.773   2.931   5.291  0.5359  0.6209  0.4956
  958UNK    C04 8618  24.748   3.034   5.382 -0.3450 -0.4974  0.1615
  958UNK    F05 8619  24.694   2.972   5.494  0.2415 -0.8119  0.4147
  958UNK    F06 8620  24.865   3.099   5.407  0.2043 -0.0039 -0.5080
  958UNK    F07 8621  24.669   3.127   5.324 -0.2390  0.1254 -0.0655
  958UNK    H08 8622  24.872   2.888   5.289  1.0087  1.6866 -0.3207
  959UNK    F00 8623  26.281   2.449   4.772  0.5503  0.4604 -0.7059
  959UNK    C01 8624  26.152   2.475   4.791  0.3857  0.2437  0.1284
  959UNK    H02 8625  26.079   2.396   4.772  0.8739 -0.2818  0.4319
  959UNK    C03 8626  26.120   2.602   4.792 -0.1462  0.0495 -0.3837
  959UNK    C04 8627  26.010   2.657   4.873  0.3379 -1.1545 -0.3366
  959UNK    F05 8628  26.048   2.658   5.007 -0.0436 -0.2837  0.0661
  959UNK    F06 8629  26.005   2.788   4.834 -0.3968 -0.0341 -0.6965
  959UNK    F07 8630  25.887   2.606   4.865  0.5383  0.0755  0.6515
  959UNK    H08 8631  26.175   2.672   4.730  1.5674  0.1902  1.2485
  960UNK    F00 8632  29.170   5.008   8.369  0.1049  0.5053 -0.0933
  960UNK    C01 8633  29.033   4.998   8.359  0.1642 -0.4193 -0.2336
  960UNK    H02 8634  28.988   5.095   8.381 -0.4396 -1.3107  2.6296
  960UNK    C03 8635  28.976   4.872   8.365 -0.5124 -0.1458 -0.0299
  960UNK    C04 8636  28.832   4.849   8.332 -0.1210  0.6032  0.7643
  960UNK    F05 8637  28.800   4.879   8.204  0.0923  0.4641  0.1051
  960UNK    F06 8638  28.773   4.734   8.371  0.1901 -0.2259  0.5867
  960UNK    F07 8639  28.754   4.939   8.400  0.1591  0.1764  0.1673
  960UNK    H08 8640  29.033   4.788   8.327 -1.0461 -0.0961 -0.9596
  961UNK    F00 8641  28.367   5.076   5.383  0.1112 -0.4787  0.5554
  961UNK    C01 8642  28.242   5.052   5.421  0.7486  0.3359  0.3886
  961UNK    H02 8643  28.210   4.954   5.386 -0.8100  1.1278 -0.4452
  961UNK    C03 8644  28.188   5.120   5.522 -0.0809  0.0152 -0.4028
  961UNK    C04 8645  28.062   5.066   5.585  0.2494 -0.5800 -0.3334
  961UNK    F05 8646  27.995   4.979   5.504  0.7361  0.2353  0.2177
  961UNK    F06 8647  28.088   5.035   5.712 -0.1492 -0.1873  0.5902
  961UNK    F07 8648  27.976   5.174   5.588  0.0040  0.6679  0.9117
  961UNK    H08 8649  28.226   5.216   5.553 -0.2612 -0.5086  1.5351
  962UNK    F00 8650  28.343   3.135   6.890 -0.1879 -0.6586 -0.0478
  962UNK    C01 8651  28.479   3.135   6.904  0.4746 -0.6799  0.0529
  962UNK    H02 8652  28.514   3.128   7.007  1.6035  1.7721 -0.1468
  962UNK    C03 8653  28.543   3.200   6.807 -0.4915  0.3143 -0.2905
  962UNK    C04 8654  28.674   3.163   6.768 -0.0581  0.7044  0.9370
  962UNK    F05 8655  28.712   3.237   6.662 -0.6782  0.0526  0.2201
  962UNK    F06 8656  28.764   3.185   6.870  0.2477 -0.0311  0.2788
  962UNK    F07 8657  28.675   3.030   6.729 -0.2066 -0.1503 -0.1290
  962UNK    H08 8658  28.531   3.307   6.793 -0.1934  0.4155  0.2103
  963UNK    F00 8659  28.031   4.036   9.407  0.2682 -0.1117  0.3024
  963UNK    C01 8660  28.071   4.041   9.539 -0.0672  0.1813  0.1771
  963UNK    H02 8661  28.043   4.137   9.583  0.6968  1.4091 -1.9084
  963UNK    C03 8662  28.168   3.959   9.582 -0.6886 -0.1710 -0.2529
  963UNK    C04 8663  28.167   3.877   9.704 -0.3352  0.9295 -0.1994
  963UNK    F05 8664  28.078   3.771   9.693  0.3489  0.1874 -0.0944
  963UNK    F06 8665  28.297   3.840   9.735  0.3403 -0.5824 -0.1530
  963UNK    F07 8666  28.126   3.964   9.798 -0.5569  0.1686 -0.1160
  963UNK    H08 8667  28.247   3.934   9.514  0.3763 -0.6042  1.1223
  964UNK    F00 8668  28.028   2.991   5.736 -0.1765  0.3507  0.4098
  964UNK    C01 8669  28.109   3.073   5.811  0.1374 -0.1201  0.2836
  964UNK    H02 8670  28.180   3.020   5.873  3.0563 -0.7348 -3.3997
  964UNK    C03 8671  28.070   3.199   5.814 -0.5965  0.3872  0.0573
  964UNK    C04 8672  28.175   3.298   5.842 -1.2022  0.1290 -0.3254
  964UNK    F05 8673  28.272   3.326   5.748  0.2193  0.1529  0.3454
  964UNK    F06 8674  28.120   3.418   5.866  0.5577  0.1971  0.1591
  964UNK    F07 8675  28.243   3.277   5.959 -0.1503 -0.2513  0.1495
  964UNK    H08 8676  27.986   3.217   5.880 -2.3500 -1.6686 -1.5351
  965UNK    F00 8677  29.078   2.493   5.768 -0.0469 -0.8272 -0.2628
  965UNK    C01 8678  29.162   2.569   5.839  0.1157  0.3316 -0.0387
  965UNK    H02 8679  29.184   2.518   5.933  0.2531  1.6850  0.6861
  965UNK    C03 8680  29.237   2.649   5.760 -0.1703 -0.4010 -0.1205
  965UNK    C04 8681  29.381   2.676   5.779 -0.1751 -0.2376  0.3717
  965UNK    F05 8682  29.465   2.582   5.743  0.3094  0.2736 -0.0169
  965UNK    F06 8683  29.414   2.786   5.713 -0.4505 -0.2354  0.0380
  965UNK    F07 8684  29.413   2.699   5.907  0.5064  0.1947 -0.3490
  965UNK    H08 8685  29.188   2.716   5.690  1.0535  1.1723  0.5044
  966UNK    F00 8686  25.179   0.435   5.043  0.2703  0.4885 -0.3254
  966UNK    C01 8687  25.202   0.565   5.061  0.5738  1.2284  0.0838
  966UNK    H02 8688  25.101   0.607   5.064 -0.5985 -1.5213  0.5443
  966UNK    C03 8689  25.305   0.615   4.997  0.1661 -0.8218 -0.2264
  966UNK    C04 8690  25.286   0.666   4.860 -0.5604 -0.0883 -0.4151
  966UNK    F05 8691  25.407   0.683   4.799  0.1783 -0.5695  0.0799
  966UNK    F06 8692  25.223   0.560   4.798  0.6232 -0.1003  0.3576
  966UNK    F07 8693  25.221   0.783   4.840  0.0085 -0.6178  0.1517
  966UNK    H08 8694  25.405   0.579   5.016 -0.0862 -0.7054  1.4424
  967UNK    F00 8695  27.956   3.000   8.842  0.3762 -0.0579  0.0790
  967UNK    C01 8696  27.922   2.890   8.766 -0.3561 -0.0799 -0.4930
  967UNK    H02 8697  27.843   2.837   8.820  0.6735  0.8846  1.9760
  967UNK    C03 8698  28.006   2.829   8.677  0.1201  0.0432  0.0438
  967UNK    C04 8699  27.957   2.745   8.569  0.5890  0.1182 -0.5434
  967UNK    F05 8700  27.881   2.808   8.479  0.8602  0.2218  0.3113
  967UNK    F06 8701  28.055   2.686   8.501  0.3450 -0.3025 -0.4865
  967UNK    F07 8702  27.892   2.645   8.626  0.2616 -0.1325  0.1513
  967UNK    H08 8703  28.113   2.844   8.675  0.3057 -1.3355 -0.2960
  968UNK    F00 8704  27.211   0.122   7.415 -0.0269 -0.0125  0.1491
  968UNK    C01 8705  27.343   0.120   7.436  0.5362 -0.1341  0.8386
  968UNK    H02 8706  27.400   0.183   7.368 -1.4869  0.5747 -0.2356
  968UNK    C03 8707  27.388   0.008   7.499 -0.6104  1.1125  0.1023
  968UNK    C04 8708  27.524  -0.022   7.547  0.4795 -0.2735 -0.3121
  968UNK    F05 8709  27.553  -0.153   7.549 -0.5050  0.4982 -0.2092
  968UNK    F06 8710  27.611   0.044   7.458  0.5006 -0.3227  0.2058
  968UNK    F07 8711  27.546   0.013   7.679  0.7083 -0.0586 -0.1718
  968UNK    H08 8712  27.322  -0.073   7.526 -0.2050  0.9205  0.5096
  969UNK    F00 8713  26.603   3.488   7.796 -0.0869  0.7211  0.4104
  969UNK    C01 8714  26.644   3.356   7.787  0.2547 -0.6600 -0.5288
  969UNK    H02 8715  26.695   3.341   7.692 -1.0420 -0.9876 -1.1970
  969UNK    C03 8716  26.673   3.310   7.908 -0.1389  0.4527  0.3460
  969UNK    C04 8717  26.783   3.214   7.910 -0.2848  0.0416 -0.0405
  969UNK    F05 8718  26.772   3.149   8.027  0.3590  0.7480  0.3425
  969UNK    F06 8719  26.766   3.124   7.811 -0.4554  0.5429  0.2465
  969UNK    F07 8720  26.903   3.266   7.890  0.1184  0.0221  0.3498
  969UNK    H08 8721  26.677   3.382   7.988 -0.0474  0.7906  0.0410
  970UNK    F00 8722  25.271   4.746   3.331 -0.2256 -0.3543  0.1861
  970UNK    C01 8723  25.293   4.819   3.444  0.2161  0.0821 -0.5275
  970UNK    H02 8724  25.260   4.922   3.434  0.8268  0.3042 -0.2867
  970UNK    C03 8725  25.375   4.768   3.532  0.1364  0.0007  0.0420
  970UNK    C04 8726  25.372   4.782   3.679 -0.1780 -0.5281  0.7414
  970UNK    F05 8727  25.265   4.716   3.721  0.0092  0.2596  0.4179
  970UNK    F06 8728  25.485   4.735   3.728 -0.3214 -0.2330 -0.3569
  970UNK    F07 8729  25.357   4.907   3.723 -0.2312 -0.3422  0.0712
  970UNK    H08 8730  25.418   4.675   3.499  2.3118  0.4525  1.4822
  971UNK    F00 8731  27.139   1.958   9.050  0.5189  0.4065 -0.1169
  971UNK    C01 8732  27.130   1.932   8.922 -0.7912 -0.1345  0.3573
  971UNK    H02 8733  27.179   1.837   8.900 -1.0210 -0.1487 -0.1128
  971UNK    C03 8734  27.121   2.038   8.848 -0.6066  0.0641  0.0359
  971UNK    C04 8735  27.106   2.024   8.703 -0.4003 -0.0566 -0.0226
  971UNK    F05 8736  26.979   2.054   8.667  0.3318  0.2133 -0.1261
  971UNK    F06 8737  27.188   2.120   8.647  0.2963  0.0017 -0.0568
  971UNK    F07 8738  27.155   1.910   8.653 -0.2106 -0.2539  0.0623
  971UNK    H08 8739  27.079   2.124   8.897  1.6288  0.6676  0.9611
  972UNK    F00 8740  25.447   2.900   7.522 -0.1231 -0.1761  0.4729
  972UNK    C01 8741  25.532   2.846   7.434 -0.0414 -0.3251 -0.2587
  972UNK    H02 8742  25.625   2.814   7.482 -0.1401 -0.5533 -0.2172
  972UNK    C03 8743  25.493   2.832   7.311 -0.7689  0.3920  1.0951
  972UNK    C04 8744  25.566   2.750   7.210  0.3164  0.4391 -0.6842
  972UNK    F05 8745  25.700   2.766   7.220  0.4051 -0.5304 -0.1488
  972UNK    F06 8746  25.541   2.617   7.232 -0.8531 -0.1233  0.1572
  972UNK    F07 8747  25.524   2.772   7.085  0.0866 -0.2282 -0.4243
  972UNK    H08 8748  25.467   2.922   7.258 -2.1596 -1.0096 -0.6606
  973UNK    F00 8749  24.606   3.362   6.892  0.0934 -0.1911 -0.2654
  973UNK    C01 8750  24.502   3.276   6.904  0.9341 -0.9038 -0.2592
  973UNK    H02 8751  24.468   3.272   7.007  1.5006  1.2524  0.0238
  973UNK    C03 8752  24.481   3.182   6.812  0.2291  0.3773  0.8781
  973UNK    C04 8753  24.363   3.089   6.809  0.4977 -0.6030  0.0307
  973UNK    F05 8754  24.242   3.148   6.782  0.1010 -0.2488  0.2912
  973UNK    F06 8755  24.377   2.985   6.725 -0.0100  0.6449 -0.0820
  973UNK    F07 8756  24.359   3.022   6.926 -0.0241 -0.0595 -0.1995
  973UNK    H08 8757  24.567   3.150   6.756  0.6040 -2.2668  2.8220
  974UNK    F00 8758  27.883   0.851   8.386  0.6802 -0.2065  0.1635
  974UNK    C01 8759  27.946   0.968   8.395  0.3566 -0.0904  0.3830
  974UNK    H02 8760  28.004   0.977   8.487  1.4350 -1.5604 -0.1439
  974UNK    C03 8761  27.950   1.044   8.285  0.0548 -0.3717  0.9207
  974UNK    C04 8762  28.046   1.150   8.251 -0.3074 -0.1755 -0.1474
  974UNK    F05 8763  28.167   1.100   8.233  0.3251  0.4356  0.3647
  974UNK    F06 8764  28.008   1.206   8.127  0.2818 -0.4013 -1.0262
  974UNK    F07 8765  28.042   1.249   8.343 -0.1631  0.3432  0.7034
  974UNK    H08 8766  27.875   1.020   8.211 -0.8419  1.4823  1.2129
  975UNK    F00 8767  23.017   3.479   6.941 -0.4849 -0.3292  0.0037
  975UNK    C01 8768  22.922   3.570   6.942  0.0127 -0.4613  0.1138
  975UNK    H02 8769  22.834   3.538   6.999 -0.2442  0.0436 -0.0001
  975UNK    C03 8770  22.933   3.665   6.848  0.3160 -0.1623  0.4257
  975UNK    C04 8771  22.871   3.651   6.715 -0.2329 -0.0668  0.0862
  975UNK    F05 8772  22.905   3.760   6.645 -0.5045  0.2890 -0.7273
  975UNK    F06 8773  22.922   3.533   6.658 -0.4536  0.6915 -0.2689
  975UNK    F07 8774  22.734   3.644   6.712  0.0046  0.0056 -0.0735
  975UNK    H08 8775  23.019   3.729   6.857  1.5137 -1.5788 -0.6433
  976UNK    F00 8776  25.424   1.543  10.339 -0.2878 -0.5572  0.0640
  976UNK    C01 8777  25.492   1.429  10.315 -0.0268  0.1462 -0.1597
  976UNK    H02 8778  25.594   1.465  10.300 -0.2742  0.6303 -0.6740
  976UNK    C03 8779  25.448   1.316  10.358 -0.2654  0.1973  0.4443
  976UNK    C04 8780  25.327   1.249  10.310 -0.4721 -0.0444  0.1793
  976UNK    F05 8781  25.260   1.196  10.415  0.4871  0.2821  0.4231
  976UNK    F06 8782  25.244   1.330  10.247  0.0246  0.1743 -0.0510
  976UNK    F07 8783  25.361   1.143  10.233  0.0553 -0.1780 -0.0147
  976UNK    H08 8784  25.482   1.285  10.456  0.3049 -1.0514 -0.1299
  977UNK    F00 8785  28.963   4.973   6.950  0.2141  0.5111 -0.1576
  977UNK    C01 8786  29.079   5.008   6.901  0.7513 -0.0468  0.0447
  977UNK    H02 8787  29.090   4.941   6.816  0.6152  0.0949 -0.0851
  977UNK    C03 8788  29.169   5.070   6.972  0.0806  0.2422 -0.3449
  977UNK    C04 8789  29.244   5.194   6.936  0.1668 -0.9156  0.1425
  977UNK    F05 8790  29.151   5.296   6.932  0.3033 -0.1787 -0.0888
  977UNK    F06 8791  29.333   5.224   7.031  0.4353 -0.3705 -0.0546
  977UNK    F07 8792  29.300   5.185   6.809  0.0049 -0.1635 -0.2221
  977UNK    H08 8793  29.178   5.037   7.074  0.7445 -0.1087 -0.5137
  978UNK    F00 8794  25.420   1.242   7.491 -0.4210  0.2300 -0.0816
  978UNK    C01 8795  25.422   1.238   7.622 -0.0057  0.1381  0.0353
  978UNK    H02 8796  25.395   1.337   7.659 -0.5588  0.2651 -0.6942
  978UNK    C03 8797  25.445   1.134   7.705  0.0291  0.1319 -0.1174
  978UNK    C04 8798  25.586   1.092   7.735  0.1118  0.3191  1.0365
  978UNK    F05 8799  25.669   1.094   7.627  0.1328 -0.1504 -0.2201
  978UNK    F06 8800  25.638   1.187   7.819  0.4547 -0.1933 -0.0635
  978UNK    F07 8801  25.599   0.972   7.796 -0.1531  0.3231  0.3161
  978UNK    H08 8802  25.367   1.081   7.757  1.0155 -2.0323 -0.7844
  979UNK    F00 8803  28.690   1.079   5.355  0.3719 -0.0288  0.1657
  979UNK    C01 8804  28.731   1.037   5.467 -0.0209 -0.4561 -0.2025
  979UNK    H02 8805  28.787   0.945   5.452  1.3075  0.7013 -2.6937
  979UNK    C03 8806  28.735   1.122   5.566  0.0737 -0.5884  0.0626
  979UNK    C04 8807  28.821   1.116   5.680  0.5202  0.2708 -0.2044
  979UNK    F05 8808  28.899   1.228   5.693 -0.0654  0.0288  0.1681
  979UNK    F06 8809  28.741   1.109   5.788  0.0608 -0.4259 -0.3212
  979UNK    F07 8810  28.910   1.009   5.684 -0.3228  0.3017  0.0352
  979UNK    H08 8811  28.665   1.203   5.574 -0.1645 -0.7022 -0.9160
  980UNK    F00 8812  27.348   1.967   3.839 -0.0943  0.3155 -0.0329
  980UNK    C01 8813  27.251   2.047   3.891  0.6827  0.1519  0.6950
  980UNK    H02 8814  27.242   2.055   3.999  0.0672  0.7606  0.5971
  980UNK    C03 8815  27.169   2.088   3.795  0.0817 -0.4208 -0.3676
  980UNK    C04 8816  27.058   2.181   3.805 -0.4501  0.5287 -0.5299
  980UNK    F05 8817  27.009   2.168   3.932  0.0241 -0.4669 -0.4627
  980UNK    F06 8818  27.111   2.305   3.789 -0.1074  0.2088  0.1387
  980UNK    F07 8819  26.960   2.150   3.714 -0.3781  0.5635  0.2260
  980UNK    H08 8820  27.156   2.020   3.712 -0.7681 -0.5979 -0.0999
  981UNK    F00 8821  27.971   2.094   7.528 -0.0770 -0.0134 -0.0464
  981UNK    C01 8822  27.926   2.013   7.623  0.7050  0.0616 -1.0564
  981UNK    H02 8823  27.967   2.044   7.719  0.8735 -1.5098 -0.5908
  981UNK    C03 8824  27.866   1.902   7.598  0.6232 -0.0343  0.6735
  981UNK    C04 8825  27.752   1.868   7.687 -0.2933 -0.7420 -0.2518
  981UNK    F05 8826  27.699   1.749   7.669  0.1739  0.2363  0.1957
  981UNK    F06 8827  27.767   1.879   7.819  0.2287 -0.0527  0.1252
  981UNK    F07 8828  27.652   1.955   7.668  0.0603  0.1394 -0.0282
  981UNK    H08 8829  27.848   1.887   7.493 -0.4306 -1.0194  0.9868
  982UNK    F00 8830  25.800   1.231   9.239 -0.1529 -0.3919  0.1096
  982UNK    C01 8831  25.866   1.349   9.225 -0.2125 -0.1897 -0.4635
  982UNK    H02 8832  25.793   1.426   9.198 -1.3673 -1.7507 -1.8493
  982UNK    C03 8833  25.998   1.345   9.208 -0.4974 -0.1960 -0.3825
  982UNK    C04 8834  26.057   1.322   9.076 -0.2405  0.2496  0.1075
  982UNK    F05 8835  26.061   1.436   9.004 -0.0330  0.2743  0.5087
  982UNK    F06 8836  26.183   1.272   9.077 -0.0466  0.6769  0.2814
  982UNK    F07 8837  25.989   1.223   9.014  0.5254  0.0465 -0.1062
  982UNK    H08 8838  26.068   1.397   9.271  0.8091  0.0142 -1.9553
  983UNK    F00 8839  25.758   0.348   6.253  0.2390  0.0662 -0.2638
  983UNK    C01 8840  25.642   0.403   6.208 -0.0677  0.2772  0.2393
  983UNK    H02 8841  25.559   0.339   6.239  0.9561 -0.1408  2.2158
  983UNK    C03 8842  25.640   0.524   6.150 -0.1640  0.4640 -0.4746
  983UNK    C04 8843  25.521   0.600   6.118  0.2512 -0.1262 -0.2409
  983UNK    F05 8844  25.418   0.520   6.081 -0.5254  0.0550 -0.0968
  983UNK    F06 8845  25.466   0.662   6.222  0.1218 -0.1539  0.0678
  983UNK    F07 8846  25.543   0.691   6.019 -0.1688 -0.4585 -0.4586
  983UNK    H08 8847  25.723   0.592   6.164  0.1764 -0.0229 -0.0854
  984UNK    F00 8848  27.957   1.452   7.727  0.0404 -0.2754 -0.5232
  984UNK    C01 8849  27.932   1.556   7.805  0.6223  0.2339  0.3911
  984UNK    H02 8850  27.844   1.616   7.784  0.2602  0.9368  3.6382
  984UNK    C03 8851  28.026   1.584   7.894 -0.9077 -0.5253  0.5099
  984UNK    C04 8852  28.148   1.637   7.841 -0.2286  0.2050 -0.4827
  984UNK    F05 8853  28.242   1.613   7.934  0.7618 -0.2642  0.1782
  984UNK    F06 8854  28.190   1.578   7.731  0.4518  0.3382  0.0194
  984UNK    F07 8855  28.131   1.769   7.832 -0.0200  0.3771 -0.0428
  984UNK    H08 8856  28.029   1.542   7.994  0.5394  0.3721  0.8389
  985UNK    F00 8857  28.849   3.785   9.490  0.0578  0.1610  0.0921
  985UNK    C01 8858  28.892   3.823   9.609 -0.2428  0.0617  0.4031
  985UNK    H02 8859  28.809   3.849   9.675 -0.2468  0.3587  0.2742
  985UNK    C03 8860  29.014   3.859   9.628  0.5248 -0.0380  0.1069
  985UNK    C04 8861  29.069   3.995   9.599 -0.0365  0.3594 -0.0914
  985UNK    F05 8862  29.041   4.047   9.478 -0.2321  0.4717  0.0086
  985UNK    F06 8863  29.015   4.079   9.687 -0.2377 -0.2518  0.5197
  985UNK    F07 8864  29.204   3.999   9.635  0.2806 -0.7198 -0.6910
  985UNK    H08 8865  29.097   3.789   9.629  0.2167 -0.4522 -2.1169
  986UNK    F00 8866  28.271   4.563   5.086  0.1173 -0.0396  0.5010
  986UNK    C01 8867  28.195   4.459   5.044 -0.4243 -0.0340 -0.6375
  986UNK    H02 8868  28.092   4.479   5.073 -0.6491 -1.3732 -0.4784
  986UNK    C03 8869  28.228   4.381   4.943  0.4238  0.0443  1.1566
  986UNK    C04 8870  28.136   4.352   4.837 -0.0760 -0.3617  0.1203
  986UNK    F05 8871  28.185   4.248   4.757 -0.2333 -0.2652 -0.1554
  986UNK    F06 8872  28.013   4.304   4.882  0.2392 -0.2705 -0.0165
  986UNK    F07 8873  28.113   4.460   4.761 -0.3655  0.5295 -0.1338
  986UNK    H08 8874  28.294   4.296   4.957 -0.4151 -0.7971  0.0791
  987UNK    F00 8875  27.917   4.709   8.653 -0.0515 -0.1377  0.2148
  987UNK    C01 8876  27.951   4.720   8.526 -0.1327  0.3129 -0.0526
  987UNK    H02 8877  27.937   4.626   8.472 -0.3446  0.3359 -0.0374
  987UNK    C03 8878  28.007   4.830   8.481  0.7964  0.7440  0.3109
  987UNK    C04 8879  27.917   4.953   8.478  0.2262  0.2334  0.5378
  987UNK    F05 8880  27.854   4.965   8.595 -0.1207 -0.0753  0.6666
  987UNK    F06 8881  27.997   5.061   8.463 -0.0168 -0.2221  0.0260
  987UNK    F07 8882  27.819   4.954   8.385  0.0647  0.3420 -0.3519
  987UNK    H08 8883  28.101   4.862   8.524 -0.4795  2.1140  2.1972
  988UNK    F00 8884  27.295   3.117   7.765 -0.4799  0.1065 -0.0736
  988UNK    C01 8885  27.263   3.245   7.752  0.1036  0.0769 -0.3050
  988UNK    H02 8886  27.156   3.255   7.732 -0.3905 -0.1500  2.0863
  988UNK    C03 8887  27.359   3.330   7.722 -0.4164  0.1295 -0.5904
  988UNK    C04 8888  27.402   3.356   7.581 -0.1330  0.7497 -0.0463
  988UNK    F05 8889  27.394   3.252   7.495  0.0824 -0.2680 -0.2531
  988UNK    F06 8890  27.331   3.455   7.522  0.0555 -0.2027  0.0825
  988UNK    F07 8891  27.531   3.399   7.586  0.9033  0.0688  0.0389
  988UNK    H08 8892  27.413   3.389   7.795  1.3009  0.5632 -2.1651
  989UNK    F00 8893  27.912   1.142   3.916  0.0668  0.0058 -0.3476
  989UNK    C01 8894  28.021   1.212   3.943  0.1760  0.6068 -0.2090
  989UNK    H02 8895  28.071   1.177   4.033  0.0327  0.8415 -0.0365
  989UNK    C03 8896  28.078   1.264   3.834 -0.9022 -0.2774 -0.2071
  989UNK    C04 8897  28.226   1.286   3.837  0.5766 -0.0275  0.0053
  989UNK    F05 8898  28.251   1.362   3.946 -0.1176 -0.5955  0.0521
  989UNK    F06 8899  28.290   1.165   3.840 -0.1739 -0.4402 -0.6577
  989UNK    F07 8900  28.275   1.358   3.730 -0.9389  0.6290 -0.4536
  989UNK    H08 8901  28.023   1.321   3.761 -2.8604 -1.5887  0.1979
  990UNK    F00 8902  25.184   1.439   7.013 -0.3613 -0.0403 -0.3387
  990UNK    C01 8903  25.061   1.475   7.042  0.3300 -0.0470  0.6514
  990UNK    H02 8904  25.023   1.419   7.128 -1.4507 -1.4064 -0.9814
  990UNK    C03 8905  24.998   1.550   6.945 -0.2323  0.0184  0.0819
  990UNK    C04 8906  24.922   1.669   6.957 -0.0667  0.1190  0.0129
  990UNK    F05 8907  24.827   1.682   6.867  0.1105  0.0045  0.4648
  990UNK    F06 8908  24.874   1.685   7.084  0.0788 -0.2860 -0.0336
  990UNK    F07 8909  24.992   1.780   6.935 -0.2913  0.1492 -0.5308
  990UNK    H08 8910  25.015   1.524   6.842 -1.5307  1.6661 -0.5606
  991UNK    F00 8911  25.440   4.608   4.688 -0.1110  0.0909  0.1774
  991UNK    C01 8912  25.558   4.606   4.618  0.1356 -0.5342  1.0153
  991UNK    H02 8913  25.546   4.604   4.510 -0.9493  1.4268  1.0687
  991UNK    C03 8914  25.661   4.648   4.693 -0.2851 -0.3700  0.1525
  991UNK    C04 8915  25.750   4.562   4.779 -0.0514 -0.3810 -0.7553
  991UNK    F05 8916  25.689   4.453   4.826  0.2074  0.2868 -0.0471
  991UNK    F06 8917  25.856   4.522   4.704  0.5415 -0.3360  0.5237
  991UNK    F07 8918  25.798   4.630   4.889 -0.1499 -0.0216  0.2234
  991UNK    H08 8919  25.665   4.753   4.720 -1.3138 -0.2609 -0.0790
  992UNK    F00 8920  26.192   2.008   6.660  0.6293 -0.3195  0.0767
  992UNK    C01 8921  26.099   2.089   6.714 -0.6822 -0.1600  0.0392
  992UNK    H02 8922  26.089   2.174   6.648 -1.2294 -1.7655 -1.9926
  992UNK    C03 8923  26.086   2.090   6.845  0.9852 -0.4887 -0.3585
  992UNK    C04 8924  25.955   2.130   6.904  0.1912  0.2294  1.2151
  992UNK    F05 8925  25.959   2.158   7.033 -0.4040 -0.4467 -0.1244
  992UNK    F06 8926  25.901   2.234   6.832 -0.0777  0.3059 -0.3413
  992UNK    F07 8927  25.877   2.018   6.901 -0.4542 -0.6934 -0.0143
  992UNK    H08 8928  26.138   2.015   6.902 -1.8900 -3.7829 -1.8403
  993UNK    F00 8929  25.719   4.188   9.334 -0.0658  0.7008 -0.0446
  993UNK    C01 8930  25.791   4.225   9.229 -0.1556 -0.0434  0.5369
  993UNK    H02 8931  25.862   4.302   9.260  1.0006 -0.1820 -1.6532
  993UNK    C03 8932  25.793   4.138   9.125 -0.4943 -0.0337  0.0601
  993UNK    C04 8933  25.894   4.151   9.013  0.3640 -0.2997 -0.1110
  993UNK    F05 8934  25.841   4.106   8.897 -0.0097 -0.0281 -0.8789
  993UNK    F06 8935  25.901   4.283   8.994  0.2303  0.1656 -0.0636
  993UNK    F07 8936  26.020   4.106   9.034 -0.3249  0.2242 -0.4989
  993UNK    H08 8937  25.696   4.110   9.087 -0.2714 -0.1667 -0.4106
  994UNK    F00 8938  24.505   3.839   6.986  0.4742  0.0456 -0.1490
  994UNK    C01 8939  24.564   3.731   6.933 -0.8891 -0.2774  0.0864
  994UNK    H02 8940  24.575   3.652   7.008  0.4939 -0.4642 -0.2893
  994UNK    C03 8941  24.615   3.728   6.812  0.2428 -0.7282  0.9221
  994UNK    C04 8942  24.757   3.767   6.784 -0.2241  0.4875  0.6232
  994UNK    F05 8943  24.843   3.665   6.792  0.0131 -0.0820  0.1771
  994UNK    F06 8944  24.761   3.824   6.662 -0.6424 -0.0235 -0.4349
  994UNK    F07 8945  24.795   3.852   6.886  0.8470  0.6195  0.3938
  994UNK    H08 8946  24.550   3.751   6.729 -1.2232 -1.5666  1.8256
  995UNK    F00 8947  24.572   2.138   6.755 -0.2399 -0.5410  0.2998
  995UNK    C01 8948  24.634   2.025   6.718  0.4770  0.8016  0.4881
  995UNK    H02 8949  24.741   2.035   6.736  0.7481 -1.1734  0.0265
  995UNK    C03 8950  24.583   1.901   6.697  0.8697 -0.5345 -0.9016
  995UNK    C04 8951  24.529   1.861   6.565 -0.1627 -0.0691  0.6617
  995UNK    F05 8952  24.454   1.744   6.564  0.5063  0.7820  0.0253
  995UNK    F06 8953  24.442   1.950   6.519 -0.1798 -0.7336 -0.1350
  995UNK    F07 8954  24.617   1.843   6.463  0.1807 -0.0092 -0.0974
  995UNK    H08 8955  24.620   1.818   6.755  1.9008  0.5161 -0.0355
  996UNK    F00 8956  29.657   3.077   7.200  0.5091 -0.9205 -0.2672
  996UNK    C01 8957  29.578   3.108   7.092 -0.6766  0.2336 -0.0935
  996UNK    H02 8958  29.603   3.051   7.003 -1.8174  0.0504 -0.3022
  996UNK    C03 8959  29.459   3.174   7.105  0.2091 -0.0704  0.0488
  996UNK    C04 8960  29.448   3.318   7.125 -0.3095  0.1581 -0.1327
  996UNK    F05 8961  29.495   3.382   7.022 -0.5869 -0.0601  0.6750
  996UNK    F06 8962  29.315   3.359   7.132 -0.5459 -0.0069  0.3931
  996UNK    F07 8963  29.531   3.350   7.228  0.7593 -0.3572  0.0418
  996UNK    H08 8964  29.394   3.139   7.184 -1.2852  0.7452 -0.7912
  997UNK    F00 8965  27.740   5.147   7.929 -0.4468  0.0795 -0.2692
  997UNK    C01 8966  27.866   5.149   7.890 -0.1298 -0.2502 -0.5788
  997UNK    H02 8967  27.879   5.089   7.800  1.6811 -0.2297 -0.3445
  997UNK    C03 8968  27.968   5.162   7.977 -0.2454  0.5250 -0.3213
  997UNK    C04 8969  28.021   5.054   8.057 -0.3859 -0.2809 -0.5262
  997UNK    F05 8970  28.126   4.989   8.004 -0.2209 -0.3227 -0.7728
  997UNK    F06 8971  28.072   5.096   8.183  0.4116  0.0218  0.5038
  997UNK    F07 8972  27.922   4.964   8.081  0.6437  0.1435 -0.3478
  997UNK    H08 8973  28.031   5.250   7.982 -0.3013  0.4934  1.0762
  998UNK    F00 8974  25.159   0.155   7.826 -0.0935 -0.1580 -0.4079
  998UNK    C01 8975  25.286   0.137   7.794  0.6581 -0.1730  0.9309
  998UNK    H02 8976  25.316   0.036   7.821 -0.5953 -0.2785  1.9806
  998UNK    C03 8977  25.338   0.230   7.715  0.3450  0.1372 -0.2048
  998UNK    C04 8978  25.413   0.202   7.591 -0.5323 -1.0485  0.0990
  998UNK    F05 8979  25.390   0.293   7.498  0.2930  0.2015 -0.1491
  998UNK    F06 8980  25.542   0.207   7.642 -0.0147  0.4016 -0.5050
  998UNK    F07 8981  25.399   0.077   7.540 -0.1319 -0.5510  0.2272
  998UNK    H08 8982  25.377   0.312   7.773  3.2741 -0.9731 -0.5527
  999UNK    F00 8983  28.212   0.159   4.946  0.1956  0.1457  0.3200
  999UNK    C01 8984  28.144   0.133   5.057  0.0257 -0.2295 -0.2024
  999UNK    H02 8985  28.158   0.029   5.087  0.6887 -0.4856 -1.3362
  999UNK    C03 8986  28.051   0.213   5.108 -0.0442 -0.4017 -0.6200
  999UNK    C04 8987  28.020   0.225   5.252 -0.5478  0.0195  0.0897
  999UNK    F05 8988  28.093   0.317   5.310 -0.3876 -0.7390 -0.1981
  999UNK    F06 8989  27.882   0.241   5.275  0.3931  0.4502 -0.0658
  999UNK    F07 8990  28.036   0.104   5.316 -0.2434  0.0376  0.0237
  999UNK    H08 8991  27.960   0.226   5.050  0.7839 -0.6865 -2.0108
 1000UNK    F00 8992  26.000   3.988   6.424 -0.5723 -0.3563 -0.3724
 1000UNK    C01 8993  25.928   4.019   6.532 -0.2082 -0.7730 -0.4452
 1000UNK    H02 8994  25.839   3.957   6.521 -0.4141 -0.2882 -1.6345
 1000UNK    C03 8995  25.987   4.051   6.644  0.8259 -0.6721 -0.0865
 1000UNK    C04 8996  26.089   3.967   6.705 -0.0528  0.9572  0.3002
 1000UNK    F05 8997  26.049   3.842   6.709 -0.2876  0.2961  0.4025
 1000UNK    F06 8998  26.213   3.964   6.651  0.0409  0.3517 -0.2687
 1000UNK    F07 8999  26.124   4.015   6.825  0.0460 -0.4157 -0.1765
 1000UNK    H08 9000  25.978   4.153   6.679 -1.1499 -1.6542  2.3672
 1001UNK    F00 9001  28.231   0.241   9.454  1.0917  0.5019  0.0599
 1001UNK    C01 9002  28.115   0.171   9.450  0.6595  0.0469 -0.3033
 1001UNK    H02 9003  28.119   0.079   9.392  0.3777 -1.5612  2.1674
 1001UNK    C03 9004  28.006   0.234   9.497  0.1959  0.1166 -0.2186
 1001UNK    C04 9005  27.873   0.171   9.502  0.3328 -0.7144 -0.4506
 1001UNK    F05 9006  27.856   0.073   9.410  0.2071 -0.1013 -0.9767
 1001UNK    F06 9007  27.866   0.111   9.626  0.0203 -0.2833  0.1397
 1001UNK    F07 9008  27.765   0.259   9.501  0.2320  0.1296 -0.1104
 1001UNK    H08 9009  28.013   0.324   9.557  0.9758  2.6758 -3.9595
 1002UNK    F00 9010  26.652   3.605   8.992  0.1420  0.0980 -0.2590
 1002UNK    C01 9011  26.626   3.478   8.971 -0.1176 -0.0990  0.0043
 1002UNK    H02 9012  26.653   3.411   9.052 -1.8274 -0.8757 -0.0521
 1002UNK    C03 9013  26.521   3.451   8.894  0.0372 -0.1520 -0.4694
 1002UNK    C04 9014  26.427   3.346   8.934  0.2754  0.5051 -0.5392
 1002UNK    F05 9015  26.335   3.336   8.839 -0.4440 -0.5262 -0.2839
 1002UNK    F06 9016  26.481   3.217   8.946 -0.6823 -0.5328 -0.0526
 1002UNK    F07 9017  26.359   3.373   9.047  0.2924 -0.3218  0.1181
 1002UNK    H08 9018  26.484   3.512   8.812 -1.7246  0.4762  0.7496
 1003UNK    F00 9019  29.187   4.646   5.656  0.0798  0.4666 -0.6292
 1003UNK    C01 9020  29.166   4.753   5.734 -0.2707 -0.2817 -0.2629
 1003UNK    H02 9021  29.091   4.821   5.695 -0.0262 -0.3411 -0.8460
 1003UNK    C03 9022  29.251   4.768   5.840  0.4818 -0.1892 -0.5574
 1003UNK    C04 9023  29.263   4.665   5.952 -0.0071 -0.7812  0.0619
 1003UNK    F05 9024  29.145   4.628   5.996 -0.2885 -0.0336  0.1118
 1003UNK    F06 9025  29.315   4.550   5.904  0.0186 -0.5875  0.0957
 1003UNK    F07 9026  29.351   4.707   6.048  0.3999 -0.3415  0.0638
 1003UNK    H08 9027  29.348   4.805   5.809 -0.7596  1.6535 -2.4517
 1004UNK    F00 9028  28.818   2.991   8.704 -0.1197  0.1151  0.1538
 1004UNK    C01 9029  28.814   3.023   8.836  0.6866 -0.3359 -0.3531
 1004UNK    H02 9030  28.897   2.973   8.886  0.7356 -2.1321 -2.1794
 1004UNK    C03 9031  28.737   3.124   8.876 -0.5993  0.6385 -0.8883
 1004UNK    C04 9032  28.587   3.123   8.875 -0.8682 -0.0861 -0.7770
 1004UNK    F05 9033  28.552   3.250   8.862 -0.0987  0.2510 -0.2229
 1004UNK    F06 9034  28.530   3.060   8.765  0.1762 -0.4397 -0.1087
 1004UNK    F07 9035  28.523   3.083   8.990  0.4700 -0.3657  0.1943
 1004UNK    H08 9036  28.771   3.222   8.843 -1.5684  1.3952  0.3194
 1005UNK    F00 9037  25.648   0.884  10.766 -0.0996  0.4242  0.2488
 1005UNK    C01 9038  25.610   0.759  10.736  0.3590 -0.0103 -0.3125
 1005UNK    H02 9039  25.507   0.757  10.701  0.2693  3.0848 -0.3794
 1005UNK    C03 9040  25.675   0.660  10.794  0.3492  0.0380 -0.0719
 1005UNK    C04 9041  25.663   0.516  10.785  0.1922 -0.0477  0.7532
 1005UNK    F05 9042  25.674   0.455  10.900  0.4771  0.4157  0.0566
 1005UNK    F06 9043  25.536   0.483  10.751 -0.1497 -0.1252  0.2103
 1005UNK    F07 9044  25.751   0.455  10.701 -0.0787 -0.0998  0.6426
 1005UNK    H08 9045  25.756   0.689  10.859 -0.4146  2.4674 -0.1390
 1006UNK    F00 9046  28.318   2.879   6.120  0.1796  0.6880 -0.3036
 1006UNK    C01 9047  28.307   2.768   6.195 -0.1403  0.5754  0.5172
 1006UNK    H02 9048  28.233   2.702   6.151  0.0632 -0.3782  1.5729
 1006UNK    C03 9049  28.425   2.719   6.237  0.5644  0.3755  0.3913
 1006UNK    C04 9050  28.543   2.708   6.147  0.8946 -0.4993  0.1157
 1006UNK    F05 9051  28.648   2.651   6.207 -0.6357  0.0591  0.6544
 1006UNK    F06 9052  28.539   2.638   6.032 -0.5904  0.2875 -0.3442
 1006UNK    F07 9053  28.591   2.833   6.117 -0.1356  0.0564 -0.1593
 1006UNK    H08 9054  28.462   2.757   6.331 -1.6535  0.0451  1.4362
 1007UNK    F00 9055  26.907   0.981   7.559  0.2281  0.3869  0.1453
 1007UNK    C01 9056  26.817   1.000   7.457  0.3537  0.7184 -0.1209
 1007UNK    H02 9057  26.721   1.030   7.499  0.1459  1.6530 -1.2271
 1007UNK    C03 9058  26.827   0.939   7.342  0.5239  0.0765 -0.1714
 1007UNK    C04 9059  26.785   0.802   7.306  0.2716 -0.6820  0.5118
 1007UNK    F05 9060  26.836   0.775   7.181 -0.0111 -0.2244  0.3071
 1007UNK    F06 9061  26.830   0.710   7.391 -0.2316  0.1441 -0.5841
 1007UNK    F07 9062  26.648   0.789   7.293  0.3988 -0.1422 -0.3474
 1007UNK    H08 9063  26.912   0.969   7.283  0.2102 -0.7289 -1.0516
 1008UNK    F00 9064  25.730   2.195   6.434  0.2168  0.0671  0.0712
 1008UNK    C01 9065  25.601   2.179   6.396  0.2218  0.3302 -0.3276
 1008UNK    H02 9066  25.586   2.237   6.305  0.2318  0.5584 -0.1828
 1008UNK    C03 9067  25.519   2.097   6.460 -0.2974 -0.2674  1.0774
 1008UNK    C04 9068  25.378   2.107   6.439 -0.2382  0.0865 -0.5508
 1008UNK    F05 9069  25.311   2.056   6.541  0.1304 -0.0678  0.2353
 1008UNK    F06 9070  25.326   2.230   6.412 -0.0736 -0.2140  0.4914
 1008UNK    F07 9071  25.338   2.034   6.334  0.2253  0.0739  0.0562
 1008UNK    H08 9072  25.548   2.044   6.550  1.6506  0.3903  0.8761
 1009UNK    F00 9073  26.577   1.101   9.113 -0.1333 -0.4382 -0.1066
 1009UNK    C01 9074  26.470   1.183   9.098 -0.3717  0.0072 -0.5615
 1009UNK    H02 9075  26.383   1.144   9.150  0.1446 -0.1856  0.1652
 1009UNK    C03 9076  26.488   1.306   9.051  0.1699 -0.0328  0.4496
 1009UNK    C04 9077  26.616   1.379   9.061 -0.3166 -0.0237 -0.1857
 1009UNK    F05 9078  26.692   1.370   8.948  0.0068 -0.2294  0.0273
 1009UNK    F06 9079  26.576   1.507   9.079 -0.4107  0.5555 -0.0554
 1009UNK    F07 9080  26.698   1.348   9.170  0.0471 -0.1054 -0.2632
 1009UNK    H08 9081  26.403   1.361   9.014  0.5301  0.3571  0.1975
 1010UNK    F00 9082  26.461   2.364   6.439  0.1846 -0.2198 -0.6221
 1010UNK    C01 9083  26.470   2.350   6.303  0.5013 -0.4832 -1.3128
 1010UNK    H02 9084  26.391   2.410   6.257  1.6330  2.0458 -0.0480
 1010UNK    C03 9085  26.536   2.245   6.259  0.9704  0.4780  0.4741
 1010UNK    C04 9086  26.596   2.249   6.125  0.2660  1.1347 -0.0106
 1010UNK    F05 9087  26.701   2.330   6.115 -0.0749  0.4208  0.0488
 1010UNK    F06 9088  26.633   2.130   6.078  0.2478  0.2556 -0.2611
 1010UNK    F07 9089  26.506   2.291   6.038 -0.2794  0.1133 -0.1479
 1010UNK    H08 9090  26.557   2.151   6.308  0.0799 -0.0439 -0.1450
 1011UNK    F00 9091  27.905   5.061   9.630  0.2550  0.2574  0.0523
 1011UNK    C01 9092  27.975   5.064   9.747  1.1992 -0.3656 -0.3952
 1011UNK    H02 9093  27.938   4.996   9.823  3.6270  0.8409  1.9320
 1011UNK    C03 9094  28.085   5.137   9.751  0.0951  0.1565  0.1398
 1011UNK    C04 9095  28.189   5.138   9.864 -0.4774  0.0696 -0.1844
 1011UNK    F05 9096  28.259   5.022   9.872 -1.1612 -0.8489  0.2593
 1011UNK    F06 9097  28.273   5.235   9.830 -0.0510  0.1470 -0.3208
 1011UNK    F07 9098  28.142   5.171   9.982 -0.4679  0.0409  0.1017
 1011UNK    H08 9099  28.119   5.194   9.666 -2.4154  0.2408 -0.8403
 1012UNK    F00 9100  26.555   1.592   7.489  0.4295  0.2703  0.2211
 1012UNK    C01 9101  26.595   1.649   7.600  0.1301 -0.0482 -0.7318
 1012UNK    H02 9102  26.571   1.584   7.685 -0.4009  0.4567 -0.4928
 1012UNK    C03 9103  26.688   1.746   7.592 -0.0192 -0.4989  0.6357
 1012UNK    C04 9104  26.662   1.873   7.520  0.3607  0.1471  0.4799
 1012UNK    F05 9105  26.564   1.859   7.423  0.0985  0.1093  0.2627
 1012UNK    F06 9106  26.617   1.965   7.607 -0.3596 -0.1291  0.2479
 1012UNK    F07 9107  26.772   1.921   7.460 -0.1423 -0.3796 -0.0853
 1012UNK    H08 9108  26.791   1.738   7.625  0.4862 -0.6103 -0.9089
 1013UNK    F00 9109  26.444   1.996   5.832  0.1143  0.1514  0.0263
 1013UNK    C01 9110  26.458   1.875   5.762 -0.3361 -0.7959 -0.1148
 1013UNK    H02 9111  26.543   1.814   5.791 -2.7566 -3.4558  1.7024
 1013UNK    C03 9112  26.374   1.845   5.662 -0.6565  0.0672  0.4133
 1013UNK    C04 9113  26.395   1.900   5.526  0.2078  0.2440 -0.6405
 1013UNK    F05 9114  26.516   1.884   5.470 -0.0691  0.5735 -0.2759
 1013UNK    F06 9115  26.309   1.849   5.432 -0.1865  0.0952 -0.3868
 1013UNK    F07 9116  26.361   2.033   5.522 -0.0786 -0.2123 -0.3989
 1013UNK    H08 9117  26.278   1.799   5.682 -0.0328 -1.1384  0.6532
 1014UNK    F00 9118  26.767   1.190   4.721 -0.3286  0.2811 -0.5839
 1014UNK    C01 9119  26.767   1.297   4.803 -0.2101 -0.0883 -0.1754
 1014UNK    H02 9120  26.825   1.378   4.758 -0.4378 -1.0511 -2.2783
 1014UNK    C03 9121  26.693   1.309   4.914 -0.7910  0.5153  0.7332
 1014UNK    C04 9122  26.710   1.402   5.024  0.3211 -0.5109 -0.0269
 1014UNK    F05 9123  26.693   1.531   4.979 -0.0586 -0.2852  0.0331
 1014UNK    F06 9124  26.612   1.376   5.116 -0.4044  0.1087  0.5378
 1014UNK    F07 9125  26.833   1.393   5.081 -0.5543  0.4154  0.6582
 1014UNK    H08 9126  26.618   1.235   4.940 -0.6773  0.6910  1.5847
 1015UNK    F00 9127  25.225   3.139  10.295  0.1544  0.0363  0.1910
 1015UNK    C01 9128  25.141   3.245  10.296 -0.3572  0.1283  0.4781
 1015UNK    H02 9129  25.063   3.247  10.220  2.2342 -0.8790 -2.3058
 1015UNK    C03 9130  25.142   3.320  10.405  0.6272 -0.5453 -0.7295
 1015UNK    C04 9131  25.239   3.438  10.428 -0.4340 -0.4545  0.3182
 1015UNK    F05 9132  25.372   3.410  10.408 -0.1351 -0.1940  0.0508
 1015UNK    F06 9133  25.219   3.552  10.359  0.6390 -0.1045  0.0570
 1015UNK    F07 9134  25.242   3.474  10.564 -0.2174 -0.8694 -0.3924
 1015UNK    H08 9135  25.061   3.304  10.474  1.5646 -0.3784  0.4301
 1016UNK    F00 9136  25.932   2.625  10.202  0.0775 -0.0841  0.1821
 1016UNK    C01 9137  25.961   2.531  10.115 -0.5395  0.7710  0.4389
 1016UNK    H02 9138  25.990   2.573  10.018 -0.3955  2.0928  1.0372
 1016UNK    C03 9139  25.933   2.400  10.132  0.3475 -0.1413  0.3206
 1016UNK    C04 9140  25.964   2.317  10.017 -0.5371  0.2179  0.2867
 1016UNK    F05 9141  26.099   2.295  10.004  0.4371 -0.2221 -0.2001
 1016UNK    F06 9142  25.900   2.201  10.045 -0.1719  0.1064  0.2072
 1016UNK    F07 9143  25.909   2.363   9.898 -0.1103  0.0039  0.3749
 1016UNK    H08 9144  25.842   2.365  10.178 -0.7452  1.0298 -0.9057
 1017UNK    F00 9145  26.126   2.111   9.348  0.2820 -0.3054  0.3054
 1017UNK    C01 9146  26.149   2.033   9.237  0.3389  0.2811 -0.6482
 1017UNK    H02 9147  26.246   1.983   9.248 -0.2481 -0.6565  0.2591
 1017UNK    C03 9148  26.090   2.066   9.121 -0.0870  0.7059  0.2741
 1017UNK    C04 9149  26.093   1.963   9.020 -0.0245 -0.4597 -0.3938
 1017UNK    F05 9150  25.986   1.886   9.037  0.1673  0.4829 -0.5734
 1017UNK    F06 9151  26.061   2.009   8.895  0.5419  0.1452 -0.1529
 1017UNK    F07 9152  26.205   1.888   9.021 -0.4561 -0.1729 -0.7620
 1017UNK    H08 9153  25.997   2.121   9.118  1.0331  2.5903 -1.3852
 1018UNK    F00 9154  27.994   3.614   7.625  0.4205 -0.0365  0.2963
 1018UNK    C01 9155  27.996   3.481   7.630  0.1788 -0.1244 -0.3199
 1018UNK    H02 9156  28.098   3.444   7.635  0.0993 -0.5924 -2.0487
 1018UNK    C03 9157  27.888   3.420   7.681  0.0816  0.7320  0.1414
 1018UNK    C04 9158  27.890   3.276   7.713  0.9572 -0.7547  0.1059
 1018UNK    F05 9159  27.959   3.244   7.824 -0.5335  0.4440  0.2218
 1018UNK    F06 9160  27.767   3.226   7.731 -0.3102  0.5119 -0.2314
 1018UNK    F07 9161  27.935   3.215   7.597 -0.2157 -0.1354  0.3460
 1018UNK    H08 9162  27.791   3.467   7.686 -0.7319 -0.9707  0.9700
 1019UNK    F00 9163  23.283   3.667   7.155  0.2792 -0.3555  0.0540
 1019UNK    C01 9164  23.339   3.557   7.108  0.2154  0.3640 -0.2505
 1019UNK    H02 9165  23.286   3.504   7.028 -1.1866 -0.5915  1.2862
 1019UNK    C03 9166  23.463   3.530   7.154  0.0856 -0.1638 -0.3667
 1019UNK    C04 9167  23.517   3.540   7.291  0.6984  0.0078  0.8763
 1019UNK    F05 9168  23.452   3.632   7.362 -0.2348  0.2946  0.4358
 1019UNK    F06 9169  23.493   3.418   7.349  0.4124  0.6888  0.0379
 1019UNK    F07 9170  23.653   3.559   7.292 -0.0411 -0.0852 -0.0635
 1019UNK    H08 9171  23.543   3.523   7.083  0.0962 -1.7055 -0.2164
 1020UNK    F00 9172  26.896   1.111   5.241  0.0043  0.3582 -0.1404
 1020UNK    C01 9173  26.851   1.165   5.360 -0.6444 -0.6244 -0.3322
 1020UNK    H02 9174  26.895   1.125   5.451 -1.1056  1.5245  0.8863
 1020UNK    C03 9175  26.760   1.261   5.363 -0.1323  0.5078  0.1915
 1020UNK    C04 9176  26.763   1.371   5.461  0.3614 -0.2273  0.1379
 1020UNK    F05 9177  26.776   1.331   5.590  0.2056 -0.1863 -0.0869
 1020UNK    F06 9178  26.853   1.467   5.421 -0.5612 -0.1746 -0.2382
 1020UNK    F07 9179  26.635   1.421   5.446  0.6448 -0.0175  0.2796
 1020UNK    H08 9180  26.662   1.229   5.329  0.4643 -0.7525 -0.3899
 1021UNK    F00 9181  27.421   1.442   7.462  0.2058 -0.0355 -0.0760
 1021UNK    C01 9182  27.403   1.542   7.377 -0.3548 -0.5222  0.8328
 1021UNK    H02 9183  27.298   1.551   7.351 -0.4369  1.0962  1.6491
 1021UNK    C03 9184  27.498   1.634   7.370  0.4666 -0.7083  0.1884
 1021UNK    C04 9185  27.489   1.776   7.338 -0.2801 -0.0459  0.6973
 1021UNK    F05 9186  27.606   1.836   7.336  0.2289  0.4464 -0.3163
 1021UNK    F06 9187  27.437   1.787   7.212  0.7502  0.1345  0.1854
 1021UNK    F07 9188  27.418   1.846   7.432 -0.6377  0.1645 -0.6434
 1021UNK    H08 9189  27.596   1.607   7.407  0.4275  1.4298  1.9685
 1022UNK    F00 9190  30.237   4.693   9.994 -0.0692  0.3901  0.2865
 1022UNK    C01 9191  30.345   4.702  10.069  0.3085 -0.0894 -0.8709
 1022UNK    H02 9192  30.409   4.614  10.077 -0.1316 -0.2629  0.9685
 1022UNK    C03 9193  30.393   4.822  10.104 -0.2356  0.4990  0.0203
 1022UNK    C04 9194  30.471   4.917  10.021  0.4620 -0.4466  0.0823
 1022UNK    F05 9195  30.559   4.861   9.927 -0.0672 -0.1516 -0.1684
 1022UNK    F06 9196  30.390   5.001   9.948  0.4950 -0.6771 -0.8381
 1022UNK    F07 9197  30.561   4.983  10.103  0.3339  0.1477  0.3881
 1022UNK    H08 9198  30.367   4.856  10.204 -1.3454 -1.1608  0.3295
 1023UNK    F00 9199  26.078   0.603   6.390 -0.5166  0.3562 -0.1314
 1023UNK    C01 9200  26.202   0.645   6.403 -0.0839 -0.5093 -0.1313
 1023UNK    H02 9201  26.213   0.752   6.418  0.8948 -0.4444 -1.2922
 1023UNK    C03 9202  26.299   0.558   6.387  0.2841  0.5013  0.2972
 1023UNK    C04 9203  26.288   0.425   6.448 -0.3706 -0.0628 -0.2885
 1023UNK    F05 9204  26.256   0.407   6.577 -0.0559 -0.5478  0.4476
 1023UNK    F06 9205  26.186   0.363   6.388 -0.1112  0.0342  0.5519
 1023UNK    F07 9206  26.395   0.347   6.416  0.5793  0.3959  0.1082
 1023UNK    H08 9207  26.334   0.540   6.286  1.6803  0.7419  0.7380
 1024UNK    F00 9208  26.388   4.658   6.749  0.0767 -0.2150  0.4512
 1024UNK    C01 9209  26.418   4.708   6.871  0.2632 -0.4965  1.0672
 1024UNK    H02 9210  26.525   4.715   6.891  0.5106 -0.8644 -0.0742
 1024UNK    C03 9211  26.323   4.760   6.952  0.1891  0.5837  0.1332
 1024UNK    C04 9212  26.228   4.673   7.020 -0.4267  0.8215 -0.5569
 1024UNK    F05 9213  26.177   4.577   6.943 -0.2757  0.1396  0.2329
 1024UNK    F06 9214  26.274   4.628   7.140 -0.3317  0.0746  0.5517
 1024UNK    F07 9215  26.122   4.754   7.052 -0.5030  0.2360  0.0254
 1024UNK    H08 9216  26.344   4.848   7.012 -1.1530  2.4634 -2.0546
 1025UNK    F00 9217  25.880   1.825   7.355  0.1238 -0.2511  0.1740
 1025UNK    C01 9218  25.849   1.700   7.317 -0.1269 -0.2935 -0.0962
 1025UNK    H02 9219  25.792   1.706   7.225  0.1935 -0.3688 -0.2997
 1025UNK    C03 9220  25.831   1.607   7.405  0.2157  0.2566  0.1095
 1025UNK    C04 9221  25.810   1.464   7.375  0.3349 -0.6049 -0.0574
 1025UNK    F05 9222  25.746   1.446   7.262 -0.8664 -0.4053  0.5290
 1025UNK    F06 9223  25.934   1.407   7.359 -0.3264  0.1881 -0.0923
 1025UNK    F07 9224  25.746   1.396   7.472 -0.5278  0.3676  0.9567
 1025UNK    H08 9225  25.857   1.625   7.508  1.2253 -1.3964  0.1590
 1026UNK    F00 9226  24.162   1.386   8.490 -0.1302 -0.0177  0.5785
 1026UNK    C01 9227  24.175   1.333   8.366 -0.2114  0.3480 -0.6496
 1026UNK    H02 9228  24.092   1.362   8.302  0.5328  0.6192 -1.4983
 1026UNK    C03 9229  24.263   1.234   8.343 -0.0474 -0.4632  0.2213
 1026UNK    C04 9230  24.273   1.180   8.206  0.6688 -0.3950  0.3856
 1026UNK    F05 9231  24.344   1.268   8.129 -0.4829  0.1360  0.0301
 1026UNK    F06 9232  24.340   1.060   8.228  0.0770  0.4844  0.4189
 1026UNK    F07 9233  24.157   1.143   8.144  0.9274 -0.1750 -0.1308
 1026UNK    H08 9234  24.356   1.229   8.398  0.1663  0.1853 -0.0726
 1027UNK    F00 9235  23.176   1.212   6.209 -0.4339  0.2779  0.2854
 1027UNK    C01 9236  23.071   1.240   6.135 -0.5478 -0.9822 -0.2927
 1027UNK    H02 9237  23.062   1.348   6.121 -1.4115 -0.8558  1.1326
 1027UNK    C03 9238  23.030   1.155   6.046  0.5109  0.1545 -0.3691
 1027UNK    C04 9239  22.996   1.020   6.080  0.5754 -0.1576  0.8210
 1027UNK    F05 9240  23.074   0.974   6.182  0.1921 -0.9187  0.3286
 1027UNK    F06 9241  22.867   1.016   6.116 -0.5782  0.1427  0.2532
 1027UNK    F07 9242  23.028   0.929   5.985  0.7713  0.5223  0.2479
 1027UNK    H08 9243  23.064   1.169   5.945 -2.2019 -0.1731 -1.3748
 1028UNK    F00 9244  27.818   1.964   7.164  0.1659 -0.0837 -0.1461
 1028UNK    C01 9245  27.789   1.908   7.046  0.1733 -0.0203  0.2077
 1028UNK    H02 9246  27.848   1.951   6.965 -0.1914  0.0030 -0.0496
 1028UNK    C03 9247  27.743   1.786   7.040 -0.1056 -0.1025 -0.0756
 1028UNK    C04 9248  27.812   1.675   7.103  0.0302 -0.3012  0.2936
 1028UNK    F05 9249  27.772   1.565   7.034 -0.3012  0.1386  0.2764
 1028UNK    F06 9250  27.948   1.687   7.076 -0.1732  0.2071  0.1825
 1028UNK    F07 9251  27.786   1.667   7.237 -0.0565  0.4137 -0.5152
 1028UNK    H08 9252  27.666   1.751   6.973  0.4876 -0.9397 -0.3236
 1029UNK    F00 9253  24.603   4.708   5.739 -0.3435 -0.4003  0.1189
 1029UNK    C01 9254  24.553   4.647   5.845 -0.4020 -0.2705  0.3129
 1029UNK    H02 9255  24.538   4.540   5.831  0.3352 -0.2505 -0.7402
 1029UNK    C03 9256  24.483   4.720   5.924 -0.7003  0.7069 -0.0270
 1029UNK    C04 9257  24.348   4.769   5.913  0.2417  0.6200 -0.4301
 1029UNK    F05 9258  24.249   4.684   5.938 -0.0198  0.0076 -0.0191
 1029UNK    F06 9259  24.332   4.881   5.985 -0.0658 -0.1295  0.4600
 1029UNK    F07 9260  24.329   4.808   5.788  0.8335  0.1614  0.2774
 1029UNK    H08 9261  24.521   4.729   6.025  0.6307  1.0248 -0.5565
 1030UNK    F00 9262  26.768   0.278   6.869  0.2903  0.3635 -0.0219
 1030UNK    C01 9263  26.733   0.381   6.785  0.7202 -0.0496  0.2682
 1030UNK    H02 9264  26.648   0.352   6.725  1.0751  2.9237 -1.7676
 1030UNK    C03 9265  26.762   0.507   6.818 -0.0147  0.1828 -0.1284
 1030UNK    C04 9266  26.737   0.556   6.952 -0.4874  0.7919  0.2774
 1030UNK    F05 9267  26.620   0.520   7.005  0.3308  0.2780 -0.1608
 1030UNK    F06 9268  26.828   0.520   7.048 -0.6271 -0.0684  0.6203
 1030UNK    F07 9269  26.738   0.691   6.954  0.1670 -0.0607  0.0747
 1030UNK    H08 9270  26.853   0.545   6.774 -1.3115  1.3921 -1.7870
 1031UNK    F00 9271  27.277   4.454   5.081 -1.1749  0.4283  0.0942
 1031UNK    C01 9272  27.294   4.491   4.955 -0.1732  0.3151  0.0935
 1031UNK    H02 9273  27.377   4.438   4.908  0.6126  1.1111  0.5898
 1031UNK    C03 9274  27.228   4.596   4.909 -1.1236  0.3344  0.9358
 1031UNK    C04 9275  27.196   4.633   4.772 -0.0852 -0.6647  0.3896
 1031UNK    F05 9276  27.180   4.766   4.744  0.4262 -0.0437 -0.5182
 1031UNK    F06 9277  27.279   4.588   4.677 -0.2802 -0.2472  0.6829
 1031UNK    F07 9278  27.068   4.590   4.741 -0.3413 -0.5997  0.8331
 1031UNK    H08 9279  27.167   4.653   4.978 -0.0392  2.0747  0.4983
 1032UNK    F00 9280  27.185   2.382   9.111 -0.7376 -0.3294  0.3770
 1032UNK    C01 9281  27.266   2.418   9.013 -0.0134  0.0858  0.5508
 1032UNK    H02 9282  27.208   2.438   8.923  0.3204  0.0291  0.3242
 1032UNK    C03 9283  27.394   2.435   9.030  0.2090 -0.5608  0.1392
 1032UNK    C04 9284  27.485   2.520   8.952 -0.3277 -0.1697  0.6124
 1032UNK    F05 9285  27.441   2.650   8.958 -0.3697  0.0213 -0.3746
 1032UNK    F06 9286  27.613   2.511   8.998 -0.4258 -0.1303  0.1214
 1032UNK    F07 9287  27.476   2.482   8.821  0.3100 -0.2321 -0.1885
 1032UNK    H08 9288  27.446   2.386   9.110  0.5732  2.3802  1.7890
 1033UNK    F00 9289  27.613   3.256   5.572 -0.0811  0.6308 -0.8133
 1033UNK    C01 9290  27.650   3.253   5.703 -0.0858  0.0831 -0.0510
 1033UNK    H02 9291  27.682   3.152   5.731 -0.3651  0.2279  0.8054
 1033UNK    C03 9292  27.632   3.362   5.779  0.2229 -0.0015 -0.0641
 1033UNK    C04 9293  27.677   3.381   5.918  0.1304  0.7451 -0.1418
 1033UNK    F05 9294  27.653   3.263   5.990  0.2702  0.0220 -0.5617
 1033UNK    F06 9295  27.808   3.421   5.925 -0.6669  0.4788  0.0859
 1033UNK    F07 9296  27.610   3.473   5.981 -0.3617 -0.1008 -0.4403
 1033UNK    H08 9297  27.636   3.445   5.710 -1.0178  0.6762  0.6650
 1034UNK    F00 9298  27.781   3.748   9.242 -0.0098  0.1926  0.3147
 1034UNK    C01 9299  27.878   3.677   9.304 -0.3353 -0.7623 -0.3866
 1034UNK    H02 9300  27.970   3.733   9.323 -1.5302  0.5315  1.7609
 1034UNK    C03 9301  27.840   3.580   9.387  0.9051  0.3922  0.0769
 1034UNK    C04 9302  27.939   3.507   9.463  0.1238  0.1745 -0.2339
 1034UNK    F05 9303  28.057   3.504   9.402  0.1967  0.3055  0.2757
 1034UNK    F06 9304  27.940   3.567   9.584 -0.0644 -0.0534 -0.5019
 1034UNK    F07 9305  27.888   3.384   9.485  0.0245  0.3013  0.1214
 1034UNK    H08 9306  27.750   3.521   9.382  0.2545  1.4937 -1.4017
 1035UNK    F00 9307  25.661   0.608   8.549 -0.4188  0.5181 -0.0436
 1035UNK    C01 9308  25.674   0.661   8.671 -0.5388 -0.5668  0.0120
 1035UNK    H02 9309  25.765   0.715   8.696  0.1433 -1.7400  0.1004
 1035UNK    C03 9310  25.583   0.621   8.765 -0.6674  0.0659  0.2779
 1035UNK    C04 9311  25.533   0.710   8.875  0.2134 -0.3945  0.1957
 1035UNK    F05 9312  25.626   0.798   8.923  0.1248  0.4059 -0.3252
 1035UNK    F06 9313  25.435   0.794   8.833  0.1766  0.2615 -0.4436
 1035UNK    F07 9314  25.490   0.649   8.984 -0.3525  0.1071 -0.3669
 1035UNK    H08 9315  25.617   0.526   8.802  1.6845  0.3866 -0.9500
 1036UNK    F00 9316  29.700   4.510   8.713  0.3103 -0.3422  0.7240
 1036UNK    C01 9317  29.649   4.616   8.648  0.6267 -0.9398 -0.7198
 1036UNK    H02 9318  29.671   4.618   8.542 -1.4069  0.2285 -1.1381
 1036UNK    C03 9319  29.569   4.706   8.715  0.5291 -0.0701  0.6419
 1036UNK    C04 9320  29.463   4.669   8.803 -0.3785 -0.0840  0.1770
 1036UNK    F05 9321  29.399   4.559   8.755  0.1031 -0.3439  0.6091
 1036UNK    F06 9322  29.511   4.645   8.929  0.4867 -0.2691 -0.6228
 1036UNK    F07 9323  29.370   4.764   8.791  0.7315  0.2893  0.1611
 1036UNK    H08 9324  29.621   4.797   8.742  1.2800  0.5377 -2.5984
 1037UNK    F00 9325  27.832   4.984   5.751 -0.6679 -0.3136 -0.1084
 1037UNK    C01 9326  27.852   4.885   5.843  0.2987  0.9848  0.7393
 1037UNK    H02 9327  27.920   4.911   5.925 -1.6649  0.3097  2.6365
 1037UNK    C03 9328  27.811   4.768   5.802 -0.4187 -1.1399  0.2705
 1037UNK    C04 9329  27.771   4.660   5.896 -0.0713 -0.6010  0.1188
 1037UNK    F05 9330  27.757   4.537   5.845  0.0726  0.4895  0.3706
 1037UNK    F06 9331  27.856   4.646   6.002 -0.1071  0.6227  0.0953
 1037UNK    F07 9332  27.645   4.689   5.950  0.0466  0.1677 -0.8813
 1037UNK    H08 9333  27.820   4.728   5.702 -1.7452  1.9578 -1.1480
 1038UNK    F00 9334  28.116   2.217   7.882  0.2467 -0.8410 -0.0341
 1038UNK    C01 9335  28.228   2.293   7.894 -0.3926  0.2939 -0.2885
 1038UNK    H02 9336  28.236   2.319   8.000  2.2234  0.9118 -0.6134
 1038UNK    C03 9337  28.279   2.362   7.792  0.8457 -0.0719 -0.3541
 1038UNK    C04 9338  28.269   2.311   7.649  1.0079 -1.4020 -0.3923
 1038UNK    F05 9339  28.351   2.367   7.563 -0.1709 -0.2124 -0.0474
 1038UNK    F06 9340  28.274   2.173   7.637  0.1715  0.8909  0.2488
 1038UNK    F07 9341  28.149   2.346   7.594 -0.2169  0.0045 -0.2204
 1038UNK    H08 9342  28.334   2.454   7.801  2.4056 -1.1394  1.1888
 1039UNK    F00 9343  26.140   1.076   5.766 -0.2674  0.1527 -0.1032
 1039UNK    C01 9344  26.264   1.101   5.808 -0.6849 -0.5773 -0.4171
 1039UNK    H02 9345  26.260   1.170   5.893  0.7553  1.8235 -2.2106
 1039UNK    C03 9346  26.370   1.063   5.736 -0.0945  0.5120  0.0067
 1039UNK    C04 9347  26.423   1.149   5.627  0.0428  0.1816 -0.1357
 1039UNK    F05 9348  26.339   1.153   5.521 -0.0951 -0.2763 -0.3929
 1039UNK    F06 9349  26.436   1.279   5.662 -0.2283  0.0713  0.1579
 1039UNK    F07 9350  26.541   1.100   5.573  0.0938 -0.2267  0.4639
 1039UNK    H08 9351  26.385   0.957   5.721  2.0204  0.9574 -1.2423
 1040UNK    F00 9352  24.461   4.097   7.588 -0.5728 -0.3629  0.2881
 1040UNK    C01 9353  24.357   4.051   7.515  0.1438 -0.3640  0.0739
 1040UNK    H02 9354  24.305   4.122   7.452 -0.0892 -1.0844 -0.5581
 1040UNK    C03 9355  24.325   3.925   7.539 -0.1758 -0.2583 -0.2241
 1040UNK    C04 9356  24.266   3.844   7.430  0.1901 -0.2401  0.2530
 1040UNK    F05 9357  24.216   3.735   7.493  0.1427  0.8801  0.2104
 1040UNK    F06 9358  24.157   3.897   7.375 -0.1207  0.3289 -0.0715
 1040UNK    F07 9359  24.350   3.812   7.331 -0.2521  0.6484 -0.3167
 1040UNK    H08 9360  24.272   3.907   7.631  0.8084  0.1378  0.4263
 1041UNK    F00 9361  27.437   5.136   4.939  0.3500  0.2973 -0.0335
 1041UNK    C01 9362  27.452   5.018   4.874 -0.2695 -0.0726 -0.0954
 1041UNK    H02 9363  27.371   4.949   4.897  0.6132 -1.5660 -1.3682
 1041UNK    C03 9364  27.535   5.017   4.776  1.0354 -0.5214  0.8248
 1041UNK    C04 9365  27.530   4.928   4.657 -0.4338 -0.5378 -0.1889
 1041UNK    F05 9366  27.647   4.866   4.634 -0.3280  0.1198 -0.0029
 1041UNK    F06 9367  27.440   4.829   4.666  0.4422  0.4035  0.2763
 1041UNK    F07 9368  27.512   4.994   4.541  0.0416 -0.6750  0.5836
 1041UNK    H08 9369  27.633   5.064   4.777  0.2647  1.1244 -0.5962
 1042UNK    F00 9370  28.496   0.106   6.415  0.0760  0.0065 -0.1983
 1042UNK    C01 9371  28.395   0.189   6.407 -0.5659 -0.0518  0.5332
 1042UNK    H02 9372  28.311   0.149   6.464 -1.7663  1.3118 -0.2486
 1042UNK    C03 9373  28.387   0.268   6.299 -0.3157  0.5919 -0.1254
 1042UNK    C04 9374  28.280   0.372   6.286  0.2861 -0.1227 -0.2445
 1042UNK    F05 9375  28.327   0.489   6.340  0.3898 -0.0576  0.0775
 1042UNK    F06 9376  28.252   0.392   6.155  0.0159 -0.6096  0.5132
 1042UNK    F07 9377  28.161   0.343   6.349 -0.1142  0.3010 -0.2851
 1042UNK    H08 9378  28.463   0.275   6.223  1.1499 -2.5474  0.9640
 1043UNK    F00 9379  26.370   3.661   4.416 -0.3642 -0.0321  0.1577
 1043UNK    C01 9380  26.367   3.623   4.290 -0.4554 -0.6072 -0.0653
 1043UNK    H02 9381  26.261   3.616   4.263 -0.4792 -0.2302 -0.0760
 1043UNK    C03 9382  26.466   3.662   4.210  0.2209  0.8729  0.1784
 1043UNK    C04 9383  26.456   3.671   4.063 -0.7684 -0.0369  0.1831
 1043UNK    F05 9384  26.415   3.546   4.023  0.2123 -0.3064  0.7344
 1043UNK    F06 9385  26.358   3.758   4.025  0.2030  0.7159  0.3328
 1043UNK    F07 9386  26.568   3.712   3.989 -0.3587  0.5053 -0.2100
 1043UNK    H08 9387  26.560   3.683   4.258 -1.0555  0.7947  2.8156
 1044UNK    F00 9388  26.819   1.424   7.726 -0.5293  0.0254  0.3611
 1044UNK    C01 9389  26.818   1.350   7.839 -0.6583  0.3228  0.1240
 1044UNK    H02 9390  26.712   1.338   7.858 -0.4970 -2.3667 -0.5281
 1044UNK    C03 9391  26.903   1.379   7.932  0.6464 -0.4162 -0.0550
 1044UNK    C04 9392  26.940   1.269   8.027  0.1040 -0.7051 -0.1767
 1044UNK    F05 9393  26.830   1.202   8.063 -0.9211  0.5085 -0.1190
 1044UNK    F06 9394  27.026   1.176   7.988  0.2863  0.1450 -0.3584
 1044UNK    F07 9395  27.000   1.322   8.143 -0.5618 -0.3977  0.5223
 1044UNK    H08 9396  26.884   1.469   7.988 -1.4656 -1.2459  0.6119
 1045UNK    F00 9397  26.954   3.619   9.316  0.7275 -0.0005  0.1709
 1045UNK    C01 9398  26.875   3.716   9.265 -0.4373 -0.2367  0.3281
 1045UNK    H02 9399  26.777   3.725   9.312 -0.0425  0.8737  0.9564
 1045UNK    C03 9400  26.895   3.757   9.138  0.2762  0.1803 -0.4549
 1045UNK    C04 9401  26.851   3.879   9.075  0.9064 -0.0712 -0.2477
 1045UNK    F05 9402  26.723   3.904   9.099  0.2324 -0.4227 -0.3020
 1045UNK    F06 9403  26.912   3.987   9.133 -0.2293 -0.1567  0.0849
 1045UNK    F07 9404  26.883   3.884   8.944  0.3281  0.0745 -0.3025
 1045UNK    H08 9405  26.970   3.709   9.077  0.5219  1.4379 -1.1586
 1046UNK    F00 9406  26.267   4.812   5.867 -0.2120  0.0090  0.3832
 1046UNK    C01 9407  26.338   4.789   5.983 -0.4504 -0.0958  0.1141
 1046UNK    H02 9408  26.420   4.719   5.971  1.3220  2.0514 -0.8168
 1046UNK    C03 9409  26.287   4.840   6.097  0.0807  0.0286  0.1389
 1046UNK    C04 9410  26.218   4.975   6.106  0.3953 -0.7683  0.2888
 1046UNK    F05 9411  26.202   5.017   6.231 -0.2857 -0.1979 -0.1992
 1046UNK    F06 9412  26.286   5.071   6.035 -0.1538 -0.4605  0.6616
 1046UNK    F07 9413  26.089   4.956   6.065  0.5412  0.2798  0.1858
 1046UNK    H08 9414  26.237   4.765   6.155 -0.8719  0.5506  0.0052
 1047UNK    F00 9415  25.925   0.341   6.030 -0.5341 -0.1879  0.2445
 1047UNK    C01 9416  26.053   0.347   5.997 -0.6815 -0.4443  0.5415
 1047UNK    H02 9417  26.063   0.355   5.889 -1.5462 -1.1387  0.4027
 1047UNK    C03 9418  26.133   0.279   6.077 -0.2534 -0.2042  0.3460
 1047UNK    C04 9419  26.171   0.139   6.042 -0.3266  0.3174  0.4704
 1047UNK    F05 9420  26.270   0.143   5.955  0.0489  0.4500  0.4915
 1047UNK    F06 9421  26.214   0.092   6.158  0.4044  0.1071 -0.4780
 1047UNK    F07 9422  26.078   0.054   5.985  0.4500 -0.1718  0.3948
 1047UNK    H08 9423  26.127   0.302   6.183 -0.6494 -0.5330  0.4013
 1048UNK    F00 9424  26.400   0.640   9.135 -0.1552 -0.1687 -0.2366
 1048UNK    C01 9425  26.466   0.726   9.047  0.5507  0.2746  0.1484
 1048UNK    H02 9426  26.408   0.819   9.040  1.1458  0.8294  2.1549
 1048UNK    C03 9427  26.549   0.691   8.950 -0.2235  0.1379 -0.1331
 1048UNK    C04 9428  26.625   0.774   8.858 -0.0609  0.1477 -0.6155
 1048UNK    F05 9429  26.669   0.701   8.755  0.8385  0.0418 -0.0493
 1048UNK    F06 9430  26.546   0.879   8.821 -0.2730  0.2481  0.0707
 1048UNK    F07 9431  26.730   0.826   8.921  0.1920  0.6352 -0.1069
 1048UNK    H08 9432  26.591   0.591   8.945  0.1685  0.3550 -1.4294
 1049UNK    F00 9433  26.286   1.272  10.361  0.4112 -0.2616 -0.6853
 1049UNK    C01 9434  26.202   1.177  10.322 -0.0453  0.2520  0.1541
 1049UNK    H02 9435  26.247   1.079  10.324  2.4806  1.3603 -0.8276
 1049UNK    C03 9436  26.115   1.218  10.226  0.6056 -0.0961 -0.5420
 1049UNK    C04 9437  26.163   1.226  10.086 -0.1863  0.1642 -0.3556
 1049UNK    F05 9438  26.116   1.137   9.999  0.0638 -0.1481 -0.0009
 1049UNK    F06 9439  26.121   1.343  10.033 -0.2563 -0.5403  0.0456
 1049UNK    F07 9440  26.298   1.225  10.067  0.2269 -0.1111 -0.5191
 1049UNK    H08 9441  26.015   1.253  10.249  0.8755  0.2203  0.1393
 1050UNK    F00 9442  28.838   1.677   7.285 -0.2082 -0.3869  0.2084
 1050UNK    C01 9443  28.724   1.646   7.222 -0.3718  0.3665 -0.3521
 1050UNK    H02 9444  28.694   1.542   7.238 -0.7101  0.5013 -0.1269
 1050UNK    C03 9445  28.661   1.738   7.155  0.2470 -0.4301  0.5089
 1050UNK    C04 9446  28.648   1.734   7.013 -0.1042  0.1599  0.2275
 1050UNK    F05 9447  28.634   1.858   6.969  0.5516  0.2388 -0.2288
 1050UNK    F06 9448  28.755   1.683   6.942  0.0604  0.2810  1.1205
 1050UNK    F07 9449  28.535   1.666   6.970 -0.1779 -0.6964 -0.3199
 1050UNK    H08 9450  28.641   1.833   7.202  1.8259 -0.7249  1.8350
 1051UNK    F00 9451  26.166   4.359   7.833  0.3069  0.0521  0.0565
 1051UNK    C01 9452  26.078   4.262   7.856 -0.4021 -0.4582 -0.4199
 1051UNK    H02 9453  26.104   4.177   7.794  0.6395 -2.1487  2.2485
 1051UNK    C03 9454  25.951   4.296   7.877 -0.3250 -0.4369 -0.1651
 1051UNK    C04 9455  25.865   4.204   7.948 -0.3856 -0.2335  0.4382
 1051UNK    F05 9456  25.897   4.211   8.079  0.0545  0.3979  0.2399
 1051UNK    F06 9457  25.736   4.250   7.936  0.6804  0.3796 -0.1163
 1051UNK    F07 9458  25.875   4.080   7.892 -0.3584  0.3369 -0.0827
 1051UNK    H08 9459  25.919   4.399   7.879  0.0073 -0.3567  1.0803
 1052UNK    F00 9460  25.357   2.164   7.078 -0.4457  0.2801  0.3806
 1052UNK    C01 9461  25.323   2.035   7.084 -0.5182  0.7991  0.0454
 1052UNK    H02 9462  25.341   1.992   7.182 -2.0326 -0.5875 -0.2528
 1052UNK    C03 9463  25.278   1.969   6.978  0.1443  0.7211  0.1745
 1052UNK    C04 9464  25.370   1.878   6.908  0.1132  0.8106  0.5298
 1052UNK    F05 9465  25.352   1.750   6.950  0.0103  0.0232 -0.4129
 1052UNK    F06 9466  25.369   1.884   6.773 -0.7143 -0.2274 -0.2140
 1052UNK    F07 9467  25.496   1.894   6.952 -0.1079 -0.2858 -0.2638
 1052UNK    H08 9468  25.173   1.971   6.951 -0.4166  2.1411  2.3209
 1053UNK    F00 9469  26.106   0.036   7.539 -0.0301  0.0941 -0.3707
 1053UNK    C01 9470  25.998   0.102   7.581 -0.2978 -0.3604 -0.0416
 1053UNK    H02 9471  26.027   0.202   7.613 -0.2179 -0.6584  0.8342
 1053UNK    C03 9472  25.882   0.033   7.610 -0.3624 -0.1890 -0.3290
 1053UNK    C04 9473  25.879  -0.041   7.737 -0.4756 -0.1365 -0.2556
 1053UNK    F05 9474  26.004  -0.075   7.776 -0.3221  0.3125 -0.0955
 1053UNK    F06 9475  25.808   0.030   7.829 -0.2359  0.0606  0.6343
 1053UNK    F07 9476  25.805  -0.155   7.727 -0.1455 -0.6382 -0.4198
 1053UNK    H08 9477  25.789   0.058   7.561  0.9654 -2.0843 -3.9584
 1054UNK    F00 9478  24.926   1.792   9.021 -0.0382 -0.4326  0.3242
 1054UNK    C01 9479  24.897   1.852   9.136  0.1329 -0.2260  0.1813
 1054UNK    H02 9480  24.921   1.787   9.220 -1.6500  0.1237  0.9779
 1054UNK    C03 9481  24.878   1.979   9.131 -0.2488  0.2735 -0.1702
 1054UNK    C04 9482  24.952   2.075   9.045 -0.3928 -0.1148 -0.1778
 1054UNK    F05 9483  24.938   2.201   9.086 -0.1025  0.3585 -0.0858
 1054UNK    F06 9484  25.087   2.052   9.054  0.0347  0.3833  0.1197
 1054UNK    F07 9485  24.927   2.059   8.911 -0.3515  0.4059 -0.0849
 1054UNK    H08 9486  24.781   2.020   9.155  0.0815  1.3545 -0.6389
 1055UNK    F00 9487  27.476   5.207   6.742 -0.2556  0.3574  1.0692
 1055UNK    C01 9488  27.397   5.185   6.636  0.1969  0.2028 -0.4920
 1055UNK    H02 9489  27.391   5.079   6.608 -2.2449  0.2017 -0.0530
 1055UNK    C03 9490  27.344   5.292   6.578  0.3457  0.2979 -0.0572
 1055UNK    C04 9491  27.423   5.361   6.476  0.5706 -0.1879  0.1201
 1055UNK    F05 9492  27.374   5.484   6.442 -0.0991 -0.3183  0.6376
 1055UNK    F06 9493  27.550   5.382   6.515 -0.8889 -0.4539 -0.2645
 1055UNK    F07 9494  27.431   5.298   6.354 -0.8645 -0.1874 -0.0398
 1055UNK    H08 9495  27.238   5.312   6.583  0.2362 -0.2113 -0.3878
 1056UNK    F00 9496  25.256   0.739   7.456 -0.7478  0.2028  0.1185
 1056UNK    C01 9497  25.319   0.746   7.574 -0.0133 -0.6892 -0.0468
 1056UNK    H02 9498  25.259   0.771   7.661  0.3226  1.7452 -0.4883
 1056UNK    C03 9499  25.456   0.740   7.564  0.9074  0.9171  0.0427
 1056UNK    C04 9500  25.538   0.687   7.669 -0.4873 -0.7926 -0.5092
 1056UNK    F05 9501  25.663   0.742   7.674  0.7227 -0.0718 -0.4019
 1056UNK    F06 9502  25.490   0.699   7.792 -0.0312  0.0942 -0.3634
 1056UNK    F07 9503  25.543   0.554   7.661  0.2487  0.4154 -0.0833
 1056UNK    H08 9504  25.508   0.785   7.480  0.4777  2.2598  0.4829
 1057UNK    F00 9505  27.210   4.994   6.402 -0.2896 -0.2471  0.0376
 1057UNK    C01 9506  27.144   4.926   6.306  0.9081  0.2006 -0.0428
 1057UNK    H02 9507  27.099   4.992   6.233 -1.6386 -0.9495  0.4380
 1057UNK    C03 9508  27.179   4.798   6.285  0.0012  0.4462 -0.4551
 1057UNK    C04 9509  27.141   4.727   6.159 -0.0899  0.3767 -0.3712
 1057UNK    F05 9510  27.075   4.611   6.171  0.3109  0.1005  0.2642
 1057UNK    F06 9511  27.072   4.801   6.073  0.0981  0.7351 -0.1216
 1057UNK    F07 9512  27.252   4.699   6.094 -0.3945 -0.1808 -0.0851
 1057UNK    H08 9513  27.190   4.736   6.372  1.9604  1.0557 -0.2379
 1058UNK    F00 9514  25.863   2.771   5.635 -0.3483  0.3068  0.3034
 1058UNK    C01 9515  25.847   2.811   5.513  0.3428 -0.2731  0.1760
 1058UNK    H02 9516  25.742   2.807   5.482 -0.0723  0.9993  1.3701
 1058UNK    C03 9517  25.949   2.796   5.433  0.8415  0.2258 -0.6365
 1058UNK    C04 9518  26.090   2.794   5.473  0.1137  1.0635  0.6606
 1058UNK    F05 9519  26.118   2.690   5.554 -0.5007 -0.2570 -0.0886
 1058UNK    F06 9520  26.180   2.774   5.370 -0.0369 -0.2938 -0.5193
 1058UNK    F07 9521  26.136   2.903   5.532 -0.4902 -0.5079  0.1274
 1058UNK    H08 9522  25.932   2.789   5.327 -2.7366  0.9230 -0.1798
 1059UNK    F00 9523  26.251   4.488   9.203  0.4477  0.2995 -0.0187
 1059UNK    C01 9524  26.119   4.514   9.202 -0.0069 -0.1381 -0.1530
 1059UNK    H02 9525  26.063   4.432   9.156  0.8731 -0.3765 -0.8168
 1059UNK    C03 9526  26.072   4.609   9.278  0.3914  0.0987 -0.4395
 1059UNK    C04 9527  25.936   4.610   9.322  0.0698 -0.0126 -0.7734
 1059UNK    F05 9528  25.917   4.694   9.428 -0.0373 -0.1268  0.0504
 1059UNK    F06 9529  25.859   4.657   9.217  0.2371 -0.1883 -0.2064
 1059UNK    F07 9530  25.885   4.487   9.361 -0.4742 -0.0197 -0.1263
 1059UNK    H08 9531  26.124   4.704   9.284  2.9800 -1.4090  2.3450
 1060UNK    F00 9532  27.672   2.291   4.495  0.0341 -0.0885 -0.4982
 1060UNK    C01 9533  27.717   2.208   4.585  0.0218  0.3317  0.5765
 1060UNK    H02 9534  27.736   2.254   4.682  1.7955 -0.6924  0.7286
 1060UNK    C03 9535  27.707   2.082   4.561 -0.0968 -0.4128  0.2133
 1060UNK    C04 9536  27.819   2.023   4.485 -0.9745  0.0611  0.1170
 1060UNK    F05 9537  27.859   2.086   4.376  0.1906 -0.0266  0.3375
 1060UNK    F06 9538  27.928   2.026   4.566  0.1530  0.4807 -0.1389
 1060UNK    F07 9539  27.792   1.907   4.413 -0.1924  0.2929 -0.1650
 1060UNK    H08 9540  27.617   2.045   4.513  0.7665 -2.4934  0.1383
 1061UNK    F00 9541  24.148   3.428   7.871 -0.3926 -0.0000 -0.0674
 1061UNK    C01 9542  24.222   3.514   7.947 -0.5004 -0.1840 -0.0586
 1061UNK    H02 9543  24.297   3.451   7.994  1.3128  1.4972 -0.6182
 1061UNK    C03 9544  24.241   3.646   7.914  0.1788  0.3465  0.3037
 1061UNK    C04 9545  24.144   3.754   7.945  0.1986 -0.4391 -0.5659
 1061UNK    F05 9546  24.161   3.786   8.079 -0.2804 -0.5483  0.1838
 1061UNK    F06 9547  24.185   3.862   7.866 -0.1840 -0.2853  0.4065
 1061UNK    F07 9548  24.016   3.723   7.920 -0.2192 -0.0780  0.2531
 1061UNK    H08 9549  24.294   3.670   7.822  0.1425  1.4556  0.5671
 1062UNK    F00 9550  28.759   3.968   9.167  0.1277 -0.2051 -0.0091
 1062UNK    C01 9551  28.650   4.038   9.183  0.0920 -0.7529 -0.3281
 1062UNK    H02 9552  28.681   4.142   9.190 -0.5674 -0.7284  2.3353
 1062UNK    C03 9553  28.533   3.982   9.210  0.2503 -0.1493 -0.6181
 1062UNK    C04 9554  28.502   3.933   9.348 -0.6185  0.3219 -0.0277
 1062UNK    F05 9555  28.473   4.032   9.432  0.1633 -0.6437  0.1375
 1062UNK    F06 9556  28.390   3.857   9.342 -0.5220 -0.1844 -0.4404
 1062UNK    F07 9557  28.610   3.877   9.407  0.1216 -0.1426 -0.4685
 1062UNK    H08 9558  28.491   3.913   9.139 -2.0533 -0.7573  1.2712
 1063UNK    F00 9559  26.995   2.740  10.521 -0.4039  0.0783 -0.3177
 1063UNK    C01 9560  27.040   2.630  10.457 -0.1166  0.9166  0.2043
 1063UNK    H02 9561  27.034   2.636  10.348  1.0220  0.8004  0.1303
 1063UNK    C03 9562  27.111   2.536  10.526  0.1321  0.8279  0.1897
 1063UNK    C04 9563  27.165   2.415  10.453  0.0426 -0.0175 -0.1660
 1063UNK    F05 9564  27.128   2.300  10.513 -0.4753 -0.6967  0.3700
 1063UNK    F06 9565  27.125   2.411  10.323  0.4850 -0.1283  0.1671
 1063UNK    F07 9566  27.298   2.425  10.470  0.4164 -0.1646  0.1629
 1063UNK    H08 9567  27.189   2.573  10.590  0.3723  0.1810  0.2754
 1064UNK    F00 9568  25.834   1.643   6.158 -0.0289  0.2840 -0.3416
 1064UNK    C01 9569  25.935   1.572   6.194  0.4694 -0.2754  0.3580
 1064UNK    H02 9570  25.985   1.639   6.264 -1.0345  1.5659 -0.2870
 1064UNK    C03 9571  25.924   1.440   6.214 -0.0568  0.5896  0.0733
 1064UNK    C04 9572  25.943   1.347   6.101  0.2467  0.1171 -0.0490
 1064UNK    F05 9573  25.849   1.246   6.109  0.0390 -0.4808  0.9004
 1064UNK    F06 9574  25.926   1.393   5.975 -0.4168 -0.1959 -0.2042
 1064UNK    F07 9575  26.048   1.268   6.109 -0.2689  0.2538  0.9154
 1064UNK    H08 9576  25.928   1.390   6.309  0.3400 -0.2846 -0.3950
 1065UNK    F00 9577  26.634   1.431   8.128  0.2529 -0.0133  0.0932
 1065UNK    C01 9578  26.537   1.360   8.190 -0.0722  0.3002 -1.1166
 1065UNK    H02 9579  26.588   1.291   8.257 -0.0781  0.6404 -0.7650
 1065UNK    C03 9580  26.436   1.326   8.110  0.2988  0.0292  0.0471
 1065UNK    C04 9581  26.436   1.208   8.020  0.8062 -0.3052  0.0629
 1065UNK    F05 9582  26.559   1.178   7.967  0.6309  0.0887  0.1528
 1065UNK    F06 9583  26.399   1.102   8.093  0.1632 -0.3233 -0.2839
 1065UNK    F07 9584  26.344   1.219   7.919 -0.3904  0.0393  0.1091
 1065UNK    H08 9585  26.352   1.393   8.097 -0.2588 -0.6945 -0.1041
 1066UNK    F00 9586  26.489   3.936   6.762  0.1773 -0.1035  0.0484
 1066UNK    C01 9587  26.566   3.828   6.781  0.3607 -0.0333 -0.7769
 1066UNK    H02 9588  26.579   3.815   6.888  0.3188 -1.6801 -0.9505
 1066UNK    C03 9589  26.560   3.739   6.682  0.1867  0.2199 -0.0544
 1066UNK    C04 9590  26.592   3.604   6.713 -0.4202 -0.2321 -0.4602
 1066UNK    F05 9591  26.711   3.584   6.773  0.2269 -0.0151  0.3354
 1066UNK    F06 9592  26.504   3.534   6.787 -0.2525 -0.3132 -0.0329
 1066UNK    F07 9593  26.612   3.538   6.601  0.0058 -0.1522 -0.1011
 1066UNK    H08 9594  26.481   3.758   6.612 -1.1217 -2.4420  0.6485
 1067UNK    F00 9595  25.624   1.870   8.853 -0.2142 -0.1329 -0.4439
 1067UNK    C01 9596  25.606   1.997   8.812 -0.5552 -0.3719  0.2473
 1067UNK    H02 9597  25.587   2.067   8.893  0.5878 -0.6415  0.7538
 1067UNK    C03 9598  25.616   2.030   8.685  0.1568 -0.2235 -0.3482
 1067UNK    C04 9599  25.615   2.171   8.636  0.3697  0.0575 -0.4315
 1067UNK    F05 9600  25.729   2.202   8.575  0.4893 -0.6304 -0.0401
 1067UNK    F06 9601  25.517   2.165   8.546  0.3068 -0.3135 -0.2121
 1067UNK    F07 9602  25.579   2.263   8.729 -0.0836  0.0096  0.0395
 1067UNK    H08 9603  25.579   1.955   8.617 -2.1448 -0.9748  1.6750
 1068UNK    F00 9604  25.921   2.881   6.509  0.3599 -0.6128  0.0116
 1068UNK    C01 9605  26.013   2.789   6.537  0.1349  0.4241 -0.0366
 1068UNK    H02 9606  25.964   2.705   6.587 -0.6485  0.2879 -1.0073
 1068UNK    C03 9607  26.139   2.827   6.547  0.1485  0.4050 -0.6312
 1068UNK    C04 9608  26.248   2.774   6.465  0.2279  1.0167  0.0010
 1068UNK    F05 9609  26.372   2.789   6.511  0.3944 -0.2805  0.0519
 1068UNK    F06 9610  26.230   2.642   6.440 -0.4148  0.2509  0.0568
 1068UNK    F07 9611  26.252   2.827   6.345 -0.0859  0.1022  0.1009
 1068UNK    H08 9612  26.161   2.926   6.584  1.8233  0.1886 -1.0189
 1069UNK    F00 9613  27.588   4.150   9.135 -0.8983 -0.5447 -0.5551
 1069UNK    C01 9614  27.595   4.180   9.265  0.1106 -0.3407 -0.0795
 1069UNK    H02 9615  27.527   4.263   9.282  1.0300  0.5005 -0.4299
 1069UNK    C03 9616  27.682   4.117   9.352  0.1856  0.4579 -0.1217
 1069UNK    C04 9617  27.677   4.153   9.494  0.0380  0.3235  0.6320
 1069UNK    F05 9618  27.795   4.135   9.558 -0.2503  0.1707  0.0903
 1069UNK    F06 9619  27.649   4.279   9.520 -0.2013  0.0835  0.3594
 1069UNK    F07 9620  27.587   4.074   9.559 -0.0882 -0.3727 -0.4548
 1069UNK    H08 9621  27.738   4.029   9.324 -1.9735 -1.9579  2.8880
 1070UNK    F00 9622  26.572   3.617   5.877 -0.1429  0.0160  0.1867
 1070UNK    C01 9623  26.536   3.724   5.808  0.2112  0.0568 -0.6784
 1070UNK    H02 9624  26.613   3.801   5.816  0.8612 -0.4986 -1.5829
 1070UNK    C03 9625  26.440   3.721   5.716 -0.5253  0.1982  0.8942
 1070UNK    C04 9626  26.300   3.737   5.754  0.3626 -1.1468  1.0296
 1070UNK    F05 9627  26.261   3.855   5.700  0.3516 -0.3576 -0.5815
 1070UNK    F06 9628  26.214   3.639   5.714  0.4107 -0.1787  0.1053
 1070UNK    F07 9629  26.290   3.743   5.888  0.3858  0.1640  0.2073
 1070UNK    H08 9630  26.450   3.648   5.637 -0.4724  0.1553  0.9403
 1071UNK    F00 9631  24.520   1.231   5.230 -0.4563 -0.3785 -0.5379
 1071UNK    C01 9632  24.652   1.250   5.264 -0.0983  0.3031  0.8184
 1071UNK    H02 9633  24.672   1.186   5.350 -0.4946 -2.0455 -0.7934
 1071UNK    C03 9634  24.708   1.359   5.227  0.3392  0.3853  0.7508
 1071UNK    C04 9635  24.715   1.469   5.317  0.4805  0.7915  0.7761
 1071UNK    F05 9636  24.609   1.485   5.399 -0.3638  0.1390  0.4126
 1071UNK    F06 9637  24.815   1.440   5.406 -0.1081  0.6685 -0.2004
 1071UNK    F07 9638  24.733   1.597   5.264  0.1908  0.1609  0.7240
 1071UNK    H08 9639  24.723   1.381   5.122  0.4729  3.1760  1.3247
 1072UNK    F00 9640  27.531   4.625   5.667 -0.3135 -0.0482  0.1644
 1072UNK    C01 9641  27.412   4.569   5.708  0.5113  0.7124  0.5330
 1072UNK    H02 9642  27.340   4.596   5.630 -1.8898 -0.5222  2.2805
 1072UNK    C03 9643  27.386   4.500   5.819 -0.1296  0.4443 -0.1828
 1072UNK    C04 9644  27.264   4.433   5.837  0.4089  0.5098 -0.6331
 1072UNK    F05 9645  27.250   4.375   5.956  0.3050 -0.4964 -0.3627
 1072UNK    F06 9646  27.153   4.510   5.795 -0.6614 -0.2683  0.0555
 1072UNK    F07 9647  27.272   4.337   5.740  0.3797 -0.3941 -0.0522
 1072UNK    H08 9648  27.421   4.543   5.912 -1.2268  0.9518  0.0081
 1073UNK    F00 9649  23.121   0.577   6.064  0.2976  0.2938  0.3815
 1073UNK    C01 9650  23.176   0.654   6.166  0.6074  0.3807  0.0793
 1073UNK    H02 9651  23.258   0.716   6.129  1.6331 -0.4555  0.8969
 1073UNK    C03 9652  23.141   0.621   6.287  0.0284  0.0716 -0.0924
 1073UNK    C04 9653  23.005   0.593   6.328 -0.3927 -0.1956  0.5705
 1073UNK    F05 9654  22.973   0.475   6.277  0.1882 -0.0299  0.7137
 1073UNK    F06 9655  23.009   0.569   6.460 -0.5113  0.1814 -0.6718
 1073UNK    F07 9656  22.927   0.694   6.293  0.0560 -0.0067  0.3135
 1073UNK    H08 9657  23.209   0.598   6.368 -0.2618 -2.0255 -0.3991
 1074UNK    F00 9658  24.330   4.441   4.909 -0.0531  0.2150  0.0553
 1074UNK    C01 9659  24.402   4.447   4.800  0.3721  0.1596  0.0743
 1074UNK    H02 9660  24.506   4.419   4.819  0.3271 -0.5836 -0.7039
 1074UNK    C03 9661  24.354   4.486   4.682  0.3475 -0.3687 -0.6573
 1074UNK    C04 9662  24.395   4.417   4.562  0.2085  0.0833  0.0463
 1074UNK    F05 9663  24.451   4.501   4.477 -0.1073 -0.0263 -0.4506
 1074UNK    F06 9664  24.475   4.313   4.577  0.2593  0.2513  0.2073
 1074UNK    F07 9665  24.292   4.373   4.490 -0.7997 -0.1467 -0.5628
 1074UNK    H08 9666  24.267   4.550   4.679 -2.4829 -3.9981 -0.4434
 1075UNK    F00 9667  28.606   2.126   6.766 -0.0587  0.9005 -0.5623
 1075UNK    C01 9668  28.613   2.013   6.693 -0.2560  0.1356 -0.2092
 1075UNK    H02 9669  28.628   1.927   6.759  4.0533  0.7886 -0.2381
 1075UNK    C03 9670  28.541   2.013   6.579  0.0379  0.0900  0.0014
 1075UNK    C04 9671  28.510   1.892   6.504 -0.2348  0.0263  0.6777
 1075UNK    F05 9672  28.418   1.829   6.580  0.0814 -0.2532 -0.0505
 1075UNK    F06 9673  28.462   1.931   6.377  0.1238  0.2219 -0.2981
 1075UNK    F07 9674  28.622   1.827   6.469 -0.1417  0.7148 -0.1989
 1075UNK    H08 9675  28.566   2.095   6.514  0.9310 -0.5653 -0.4810
 1076UNK    F00 9676  27.480   0.252   5.609  0.5598 -0.2098 -0.0033
 1076UNK    C01 9677  27.527   0.307   5.496 -0.5699  0.7678 -0.1093
 1076UNK    H02 9678  27.478   0.269   5.406  0.9690  1.3560 -1.2180
 1076UNK    C03 9679  27.640   0.376   5.508  0.2539 -0.5824  0.4239
 1076UNK    C04 9680  27.648   0.497   5.595 -0.7988  0.4076  0.4341
 1076UNK    F05 9681  27.754   0.571   5.551 -0.1963  0.6825 -0.2900
 1076UNK    F06 9682  27.535   0.574   5.588  0.0632 -0.0382  0.5082
 1076UNK    F07 9683  27.671   0.477   5.728  0.7018 -0.4088 -0.0863
 1076UNK    H08 9684  27.697   0.398   5.419 -0.9467 -0.5988 -0.3639
 1077UNK    F00 9685  27.278   4.118   9.081 -0.6945 -0.1341 -0.0715
 1077UNK    C01 9686  27.179   4.170   9.004 -0.2102  0.1454 -0.1967
 1077UNK    H02 9687  27.149   4.101   8.925  0.6708  0.7273 -1.0573
 1077UNK    C03 9688  27.144   4.297   9.013  0.4326 -0.4111  0.5698
 1077UNK    C04 9689  27.238   4.408   8.963  0.1113  0.0605 -0.2247
 1077UNK    F05 9690  27.196   4.527   9.006 -0.1833  0.0137 -0.4797
 1077UNK    F06 9691  27.366   4.382   8.988 -0.0713 -0.3469  0.3062
 1077UNK    F07 9692  27.242   4.413   8.829 -0.3918  0.1633 -0.4186
 1077UNK    H08 9693  27.086   4.321   9.101  2.1353 -0.4147  1.7344
 1078UNK    F00 9694  24.429   0.250   9.532  0.4856 -0.1886 -0.2907
 1078UNK    C01 9695  24.549   0.220   9.477  0.0049  0.1973  0.1880
 1078UNK    H02 9696  24.628   0.209   9.552 -0.6395  4.2920  1.6061
 1078UNK    C03 9697  24.556   0.170   9.356  0.4231  0.3939  0.3313
 1078UNK    C04 9698  24.661   0.189   9.257  0.3031  0.2778 -0.5321
 1078UNK    F05 9699  24.763   0.102   9.283 -0.1545 -0.5180 -0.1668
 1078UNK    F06 9700  24.622   0.160   9.129 -0.0876  0.4676 -0.5265
 1078UNK    F07 9701  24.712   0.317   9.274 -0.4937 -0.0979  0.1167
 1078UNK    H08 9702  24.479   0.098   9.329  0.9015  0.8358 -2.3714
 1079UNK    F00 9703  28.248   1.577   6.748  0.1384 -0.2582 -0.5308
 1079UNK    C01 9704  28.167   1.685   6.774  0.2148  0.3597  0.2822
 1079UNK    H02 9705  28.162   1.702   6.882 -0.9692  0.8191  0.1591
 1079UNK    C03 9706  28.090   1.738   6.682 -0.9478 -0.1509 -0.0331
 1079UNK    C04 9707  27.947   1.707   6.673  0.2018 -0.2663  0.6583
 1079UNK    F05 9708  27.908   1.735   6.547 -0.1194 -0.1321  0.0738
 1079UNK    F06 9709  27.933   1.574   6.688 -0.4289  0.0830  0.1201
 1079UNK    F07 9710  27.883   1.757   6.780  0.7710  0.0437 -0.1849
 1079UNK    H08 9711  28.127   1.805   6.607  1.0234 -1.2278 -0.0742
 1080UNK    F00 9712  27.502   4.277   8.402  0.0841  0.0051  0.2212
 1080UNK    C01 9713  27.402   4.367   8.422 -0.0668 -0.7875  0.6238
 1080UNK    H02 9714  27.338   4.382   8.335  0.0211 -0.5339  0.6030
 1080UNK    C03 9715  27.401   4.422   8.543 -0.1842 -0.6366 -0.3593
 1080UNK    C04 9716  27.489   4.537   8.573  0.5271 -0.0449  0.4884
 1080UNK    F05 9717  27.455   4.599   8.688  0.2258  0.6004 -0.0610
 1080UNK    F06 9718  27.612   4.500   8.581 -0.3049 -0.1246 -0.4096
 1080UNK    F07 9719  27.484   4.623   8.467 -0.1971 -0.5206 -0.3670
 1080UNK    H08 9720  27.352   4.368   8.622 -1.6935 -0.6554 -1.2818
 1081UNK    F00 9721  27.546   0.483   8.693 -0.1506 -0.2034  0.4778
 1081UNK    C01 9722  27.518   0.606   8.653 -0.4183 -0.6232  0.1625
 1081UNK    H02 9723  27.589   0.680   8.688 -1.1582 -0.5074  1.4219
 1081UNK    C03 9724  27.399   0.625   8.598 -0.8260 -0.9854  0.4436
 1081UNK    C04 9725  27.353   0.556   8.477 -0.4501  0.0869 -0.2186
 1081UNK    F05 9726  27.222   0.595   8.460 -0.0549 -0.0703 -0.4728
 1081UNK    F06 9727  27.423   0.574   8.362 -0.2693 -0.0849  0.0989
 1081UNK    F07 9728  27.354   0.423   8.507  0.0397 -0.0004  0.7537
 1081UNK    H08 9729  27.322   0.663   8.662 -0.1254 -0.9360  1.2574
 1082UNK    F00 9730  25.825   2.515   6.655 -0.3426  0.0188 -0.3285
 1082UNK    C01 9731  25.735   2.514   6.754  0.4953 -0.0959 -0.4742
 1082UNK    H02 9732  25.785   2.488   6.847  1.3506 -0.5163 -1.0449
 1082UNK    C03 9733  25.624   2.587   6.737  0.9350 -0.2121  0.1047
 1082UNK    C04 9734  25.503   2.539   6.663 -0.0947 -0.8017  1.3998
 1082UNK    F05 9735  25.422   2.644   6.636  0.5187 -0.0430 -0.4943
 1082UNK    F06 9736  25.547   2.500   6.543 -0.2708 -0.0212 -0.3811
 1082UNK    F07 9737  25.417   2.450   6.720  0.0259 -0.3161 -0.1009
 1082UNK    H08 9738  25.633   2.694   6.746  0.4079 -0.0866 -0.8285
 1083UNK    F00 9739  25.224   4.126   7.474 -0.6143 -0.4209  0.2019
 1083UNK    C01 9740  25.266   4.003   7.431 -0.1593  0.2806  0.7959
 1083UNK    H02 9741  25.274   4.002   7.322  2.8628  1.3740  0.9703
 1083UNK    C03 9742  25.334   3.931   7.520  0.1921 -0.2430  0.5495
 1083UNK    C04 9743  25.430   3.835   7.465  0.0433  0.1943  0.3474
 1083UNK    F05 9744  25.503   3.769   7.559 -0.0741 -0.5462  0.2039
 1083UNK    F06 9745  25.370   3.742   7.391 -0.0109  0.1982  0.2495
 1083UNK    F07 9746  25.526   3.897   7.393  0.0751  0.0721  0.3940
 1083UNK    H08 9747  25.301   3.924   7.622  0.8915 -0.3357  0.7739
 1084UNK    F00 9748  27.048   0.933  10.266  0.3184  0.3529 -0.0748
 1084UNK    C01 9749  27.016   0.811  10.230  0.7737 -0.1623 -0.2591
 1084UNK    H02 9750  27.100   0.747  10.258  0.6100 -1.0874 -1.7820
 1084UNK    C03 9751  26.898   0.790  10.160 -0.5190  0.1873 -0.6321
 1084UNK    C04 9752  26.832   0.657  10.148 -0.2869 -0.2756 -0.8372
 1084UNK    F05 9753  26.741   0.641  10.049  0.1706  0.6137  0.2678
 1084UNK    F06 9754  26.927   0.568  10.125 -0.4343 -0.8284 -0.0991
 1084UNK    F07 9755  26.779   0.622  10.271 -0.1220 -0.0010 -0.1274
 1084UNK    H08 9756  26.908   0.838  10.064  1.4209  1.3401  0.1099
 1085UNK    F00 9757  28.360   5.032   7.191 -0.3961  0.3300  0.0069
 1085UNK    C01 9758  28.297   4.914   7.182 -0.4128 -0.0513 -0.1598
 1085UNK    H02 9759  28.218   4.914   7.107 -0.5527  1.7031 -0.0175
 1085UNK    C03 9760  28.381   4.813   7.201 -0.8687 -0.2734 -0.5220
 1085UNK    C04 9761  28.328   4.676   7.189  0.1830 -0.3107  0.2245
 1085UNK    F05 9762  28.270   4.650   7.072  0.0771  0.2255 -0.2393
 1085UNK    F06 9763  28.408   4.574   7.217 -0.6375  0.0481  0.4209
 1085UNK    F07 9764  28.228   4.660   7.285 -0.0769 -0.6486 -0.6773
 1085UNK    H08 9765  28.484   4.829   7.172 -1.3217 -0.2075 -2.1105
 1086UNK    F00 9766  24.718   0.463   7.446 -0.4200  0.3269  0.6824
 1086UNK    C01 9767  24.584   0.476   7.436  0.1383  0.2063  0.0766
 1086UNK    H02 9768  24.550   0.577   7.416 -1.6824 -0.5215 -0.6317
 1086UNK    C03 9769  24.528   0.377   7.506  0.0618 -0.1280 -0.3666
 1086UNK    C04 9770  24.385   0.337   7.495  0.5270 -0.0357 -0.0721
 1086UNK    F05 9771  24.317   0.432   7.418 -0.3673  0.0884  0.6466
 1086UNK    F06 9772  24.373   0.215   7.432  0.4623  0.1579 -0.1943
 1086UNK    F07 9773  24.333   0.334   7.622  0.0254  0.2250  0.3902
 1086UNK    H08 9774  24.574   0.334   7.593  2.3325  0.7852 -1.0793
 1087UNK    F00 9775  24.721   0.160  10.594 -0.0465 -0.0285  0.3842
 1087UNK    C01 9776  24.696   0.133  10.469  0.4918 -0.5280  0.5283
 1087UNK    H02 9777  24.589   0.152  10.460  0.0877 -2.0242  1.9851
 1087UNK    C03 9778  24.783   0.061  10.399 -0.2422 -0.0620  0.4460
 1087UNK    C04 9779  24.775   0.034  10.251  0.8609  0.0600 -0.3127
 1087UNK    F05 9780  24.651  -0.011  10.219 -0.1330 -0.3494 -0.0928
 1087UNK    F06 9781  24.789   0.142  10.178 -0.2864  0.2546  0.5428
 1087UNK    F07 9782  24.858  -0.062  10.212  0.0201  0.1254  0.3190
 1087UNK    H08 9783  24.872   0.019  10.443  0.1870  0.8846  0.4847
 1088UNK    F00 9784  26.914   3.376   5.705  0.3868  0.2958 -0.2196
 1088UNK    C01 9785  26.829   3.396   5.807  0.1747  0.1133 -0.4136
 1088UNK    H02 9786  26.825   3.500   5.839  1.9777 -0.2866  1.1893
 1088UNK    C03 9787  26.746   3.296   5.847  0.1382  0.6694 -0.4754
 1088UNK    C04 9788  26.799   3.182   5.926 -0.1418  0.5950 -0.3112
 1088UNK    F05 9789  26.825   3.211   6.059  0.1967 -0.1451 -0.2517
 1088UNK    F06 9790  26.717   3.074   5.924  0.0996  0.1251  0.8001
 1088UNK    F07 9791  26.909   3.134   5.857  0.1795 -0.4142 -0.3006
 1088UNK    H08 9792  26.644   3.324   5.866  0.0430 -0.5247  0.8378
 1089UNK    F00 9793  26.761   4.928   5.378  0.1581  0.2675  0.1678
 1089UNK    C01 9794  26.629   4.966   5.373 -0.1151 -0.5057 -0.0992
 1089UNK    H02 9795  26.611   5.041   5.450  2.1512 -0.6488  0.6321
 1089UNK    C03 9796  26.555   4.942   5.260 -0.6994  0.0348 -0.1731
 1089UNK    C04 9797  26.440   5.021   5.220 -0.1554  0.1407 -0.8369
 1089UNK    F05 9798  26.347   4.936   5.174 -0.2377  0.7382 -0.0671
 1089UNK    F06 9799  26.388   5.094   5.322  0.0539 -0.1578 -0.2426
 1089UNK    F07 9800  26.473   5.104   5.116  0.2528  0.5064 -0.3155
 1089UNK    H08 9801  26.565   4.843   5.218 -1.2053 -0.4929  0.9168
 1090UNK    F00 9802  24.779   1.544   9.102 -0.9348 -0.2322 -0.8553
 1090UNK    C01 9803  24.755   1.478   8.989  0.0311  0.1539 -0.8664
 1090UNK    H02 9804  24.836   1.482   8.916  0.2820  0.5994 -0.5581
 1090UNK    C03 9805  24.629   1.446   8.963  0.7018 -0.1482 -0.6900
 1090UNK    C04 9806  24.535   1.544   8.899 -0.1703 -0.4991  0.1390
 1090UNK    F05 9807  24.575   1.675   8.918  0.0434 -0.4337  0.4357
 1090UNK    F06 9808  24.552   1.533   8.766 -0.2204 -0.2751 -0.5140
 1090UNK    F07 9809  24.405   1.528   8.935  0.4216 -0.4600 -0.4029
 1090UNK    H08 9810  24.583   1.355   8.999 -0.8881  0.6182 -0.7074
 1091UNK    F00 9811  27.670   5.186   5.859  0.1987  0.1362  0.3184
 1091UNK    C01 9812  27.552   5.208   5.807  0.0566 -0.4233  1.0399
 1091UNK    H02 9813  27.517   5.310   5.828  0.5891 -0.1193  0.4552
 1091UNK    C03 9814  27.477   5.102   5.784  0.0544 -0.0000  1.2175
 1091UNK    C04 9815  27.353   5.123   5.704  0.5393  0.3896 -0.0260
 1091UNK    F05 9816  27.268   5.188   5.785  0.3271 -0.1293  0.1216
 1091UNK    F06 9817  27.369   5.213   5.605 -0.3843  0.0234  0.5918
 1091UNK    F07 9818  27.303   5.012   5.655 -0.3842 -0.1334 -0.0424
 1091UNK    H08 9819  27.519   5.003   5.769 -1.0975 -0.2503 -0.5255
 1092UNK    F00 9820  26.477   4.960   3.990 -0.1067 -0.1856  0.1899
 1092UNK    C01 9821  26.430   5.076   4.048  0.1934 -0.5280 -0.2100
 1092UNK    H02 9822  26.507   5.138   4.093 -0.2709 -0.2858  0.2415
 1092UNK    C03 9823  26.315   5.122   4.003 -0.1404 -0.4871 -0.2331
 1092UNK    C04 9824  26.264   5.134   3.863  0.1878  0.5516 -0.6552
 1092UNK    F05 9825  26.141   5.183   3.875  0.0874  0.6558  0.1745
 1092UNK    F06 9826  26.344   5.195   3.775 -0.6400 -0.9096 -0.6946
 1092UNK    F07 9827  26.248   5.014   3.806 -0.3921  0.0214 -0.3554
 1092UNK    H08 9828  26.271   5.207   4.053 -0.0822 -0.0761 -0.8842
 1093UNK    F00 9829  30.392   3.711   8.699  0.0594 -0.3328  0.1234
 1093UNK    C01 9830  30.279   3.773   8.736  0.7447 -0.5459 -0.9723
 1093UNK    H02 9831  30.226   3.819   8.653 -0.6028 -2.0113 -0.9558
 1093UNK    C03 9832  30.228   3.727   8.853 -0.0440 -0.3457 -0.8494
 1093UNK    C04 9833  30.098   3.770   8.906  0.2397 -0.2029  0.3419
 1093UNK    F05 9834  30.115   3.810   9.036  0.1999  0.0213  0.0810
 1093UNK    F06 9835  30.038   3.865   8.832  0.3288 -0.5816  0.0933
 1093UNK    F07 9836  30.007   3.666   8.892 -0.3656 -0.4692  0.1131
 1093UNK    H08 9837  30.284   3.645   8.896  0.3910  0.3492 -0.0846
 1094UNK    F00 9838  24.521   4.304   9.435  0.2164 -0.0263  0.3093
 1094UNK    C01 9839  24.621   4.210   9.440  0.9398 -0.1483 -0.1286
 1094UNK    H02 9840  24.708   4.254   9.392 -0.0837  0.5965 -1.3450
 1094UNK    C03 9841  24.591   4.082   9.465 -0.4373  0.5729 -0.6320
 1094UNK    C04 9842  24.547   3.985   9.359  0.3238 -0.1116 -0.5822
 1094UNK    F05 9843  24.488   3.877   9.417 -0.1048 -0.5056  0.3214
 1094UNK    F06 9844  24.482   4.040   9.253  0.0968  0.3803 -0.3809
 1094UNK    F07 9845  24.656   3.934   9.300 -0.4887 -0.0160  0.1112
 1094UNK    H08 9846  24.651   4.022   9.533 -0.0726  0.9667 -0.6065
 1095UNK    F00 9847  29.163   1.124   7.512  0.0776 -0.0143  0.3073
 1095UNK    C01 9848  29.161   1.253   7.519  0.4985 -0.5289 -0.3545
 1095UNK    H02 9849  29.100   1.293   7.438 -1.6196 -0.2053  1.3527
 1095UNK    C03 9850  29.264   1.311   7.586 -0.2625 -0.3797 -0.1272
 1095UNK    C04 9851  29.246   1.452   7.638  0.3714  1.0033  0.5765
 1095UNK    F05 9852  29.164   1.530   7.558 -0.0784  0.0256  0.0289
 1095UNK    F06 9853  29.199   1.465   7.765 -0.5851 -0.6400 -0.1947
 1095UNK    F07 9854  29.362   1.528   7.643 -0.0312  0.2715 -0.1362
 1095UNK    H08 9855  29.339   1.244   7.626  1.1222  0.9853 -0.3786
 1096UNK    F00 9856  24.413   0.169  10.585 -0.0541 -0.3977 -0.4498
 1096UNK    C01 9857  24.293   0.190  10.534 -1.0603 -0.8300 -0.5629
 1096UNK    H02 9858  24.209   0.137  10.580  0.4578 -1.0548  2.0464
 1096UNK    C03 9859  24.273   0.290  10.448  1.1767  0.1293 -0.1257
 1096UNK    C04 9860  24.305   0.267  10.304  0.2454 -0.1017  0.8609
 1096UNK    F05 9861  24.208   0.202  10.238 -0.0011  0.3407  0.0981
 1096UNK    F06 9862  24.294   0.382  10.229  0.4761 -0.0494  0.2529
 1096UNK    F07 9863  24.426   0.206  10.270 -0.2383 -0.5144  0.0849
 1096UNK    H08 9864  24.301   0.387  10.486  1.4738 -0.1493  0.3684
 1097UNK    F00 9865  25.032   1.020   9.629 -0.0689 -0.3291  0.2754
 1097UNK    C01 9866  25.161   0.993   9.620  0.1279 -0.2699 -0.5395
 1097UNK    H02 9867  25.177   0.908   9.553  0.3464  0.1074 -0.9641
 1097UNK    C03 9868  25.237   1.019   9.723  0.7997  0.0088 -0.0366
 1097UNK    C04 9869  25.377   1.051   9.696  0.2120  0.1049  0.0375
 1097UNK    F05 9870  25.451   0.938   9.669 -0.1245 -0.7445  0.3174
 1097UNK    F06 9871  25.403   1.138   9.594  0.5831  0.6492  0.0171
 1097UNK    F07 9872  25.446   1.107   9.799  0.0417  0.4882  0.1293
 1097UNK    H08 9873  25.231   0.960   9.813  0.0940 -0.9820 -0.7191
 1098UNK    F00 9874  24.222   2.894   9.268 -0.3220 -0.5083 -0.2367
 1098UNK    C01 9875  24.189   2.805   9.176  0.0402 -0.3536  0.4570
 1098UNK    H02 9876  24.114   2.739   9.221 -0.5243 -0.1377 -0.1495
 1098UNK    C03 9877  24.233   2.817   9.056 -0.2136  0.0626  0.1795
 1098UNK    C04 9878  24.360   2.751   9.026  0.1762 -0.5244  0.0121
 1098UNK    F05 9879  24.429   2.808   8.930  0.1156 -0.4302  0.0427
 1098UNK    F06 9880  24.445   2.764   9.130 -0.1289 -0.2166 -0.3658
 1098UNK    F07 9881  24.357   2.615   9.007  0.5845 -0.0631  0.0010
 1098UNK    H08 9882  24.170   2.833   8.969 -0.0268 -0.4834 -0.0657
 1099UNK    F00 9883  25.965   0.772   9.101 -0.4007 -0.0546 -0.6288
 1099UNK    C01 9884  25.876   0.807   9.192 -0.1835 -0.1079  0.0156
 1099UNK    H02 9885  25.913   0.882   9.261  0.0133  1.0765 -1.3497
 1099UNK    C03 9886  25.770   0.726   9.211  0.4552 -0.0318  0.3762
 1099UNK    C04 9887  25.665   0.746   9.311 -0.1484 -0.5208  0.0949
 1099UNK    F05 9888  25.593   0.639   9.344  0.3558  0.3834 -0.2168
 1099UNK    F06 9889  25.710   0.803   9.420 -0.2164  0.3207 -0.2968
 1099UNK    F07 9890  25.568   0.833   9.267 -0.1340 -0.5278  0.2221
 1099UNK    H08 9891  25.729   0.674   9.125  0.7537  0.0718  0.1693
 1100UNK    F00 9892  23.382   2.881   7.340 -0.5533 -0.4522  0.0091
 1100UNK    C01 9893  23.445   2.942   7.243  0.7451 -0.4549 -0.6112
 1100UNK    H02 9894  23.390   3.031   7.210  0.1836 -0.7506 -0.4710
 1100UNK    C03 9895  23.550   2.892   7.175 -0.5692  0.1053  0.3183
 1100UNK    C04 9896  23.640   2.973   7.092  0.4400  0.3754 -0.0549
 1100UNK    F05 9897  23.703   2.913   6.992  0.3508  1.0327  0.0034
 1100UNK    F06 9898  23.569   3.079   7.041 -0.0583  0.3454  0.0781
 1100UNK    F07 9899  23.746   3.013   7.169 -0.0353 -0.5436  0.5516
 1100UNK    H08 9900  23.583   2.790   7.187 -0.8657 -0.1072 -0.6355
 1101UNK    F00 9901  25.564   2.625   8.623 -0.1247 -0.1260 -0.2384
 1101UNK    C01 9902  25.467   2.595   8.536  0.3549 -0.0703  0.6354
 1101UNK    H02 9903  25.502   2.592   8.433  0.9505 -1.8985  0.8779
 1101UNK    C03 9904  25.378   2.501   8.574 -0.4626 -0.6249  0.5213
 1101UNK    C04 9905  25.269   2.438   8.490 -0.8077 -0.6999  0.5173
 1101UNK    F05 9906  25.183   2.366   8.565  0.5767  0.2042 -0.1444
 1101UNK    F06 9907  25.202   2.518   8.411 -0.3209 -0.2453  0.4335
 1101UNK    F07 9908  25.325   2.352   8.410 -0.1635 -0.0774 -0.5751
 1101UNK    H08 9909  25.355   2.497   8.679  2.1222 -0.2968  1.1498
 1102UNK    F00 9910  23.668   2.694   6.571 -0.1261  0.0983 -0.1379
 1102UNK    C01 9911  23.728   2.705   6.694  0.4034  0.3029 -0.6603
 1102UNK    H02 9912  23.661   2.770   6.750  0.7044  2.4583 -2.7190
 1102UNK    C03 9913  23.823   2.626   6.728  0.0525 -0.1515  0.1676
 1102UNK    C04 9914  23.840   2.570   6.862  0.4911 -0.3612  0.5869
 1102UNK    F05 9915  23.970   2.545   6.891  0.1122  0.3482  0.2155
 1102UNK    F06 9916  23.777   2.634   6.966  0.1522  0.0427 -0.1907
 1102UNK    F07 9917  23.768   2.455   6.861  0.1680 -0.1148 -0.2534
 1102UNK    H08 9918  23.908   2.598   6.668  0.6916  2.1980 -0.0576
 1103UNK    F00 9919  25.660   3.369   5.914  0.2226  0.2562 -0.5996
 1103UNK    C01 9920  25.731   3.319   6.015 -0.0770  0.6449 -0.0446
 1103UNK    H02 9921  25.687   3.224   6.047  0.5025  0.3001 -0.2535
 1103UNK    C03 9922  25.864   3.329   6.010 -0.3456  0.3462  0.4681
 1103UNK    C04 9923  25.941   3.447   6.071 -0.0105 -0.4558 -0.4349
 1103UNK    F05 9924  26.074   3.448   6.041  0.3876  0.4008 -0.2935
 1103UNK    F06 9925  25.903   3.570   6.009  0.2634  0.3419 -0.3636
 1103UNK    F07 9926  25.933   3.460   6.202 -0.0315  0.2166 -0.4352
 1103UNK    H08 9927  25.909   3.301   5.915 -1.7095 -2.0959  0.4719
 1104UNK    F00 9928  27.027   2.817   4.971 -0.1685 -0.1797  0.2349
 1104UNK    C01 9929  27.003   2.940   4.931  0.4724 -0.7504  0.0395
 1104UNK    H02 9930  27.073   3.012   4.974 -0.3601  1.0194 -1.5058
 1104UNK    C03 9931  26.904   2.964   4.849 -0.1009  0.3738 -0.4826
 1104UNK    C04 9932  26.873   3.100   4.801 -0.1640  0.0016 -0.1399
 1104UNK    F05 9933  26.870   3.186   4.903 -0.5362  0.4513  0.0631
 1104UNK    F06 9934  26.951   3.141   4.699  0.2285 -0.2861 -0.7956
 1104UNK    F07 9935  26.747   3.098   4.748  0.8153  0.1454 -0.3634
 1104UNK    H08 9936  26.824   2.894   4.829 -0.3110  0.6185 -0.5147
 1105UNK    F00 9937  28.431   3.687   7.098  0.4291 -0.1663 -0.4145
 1105UNK    C01 9938  28.488   3.602   7.179  0.8358  0.0470 -0.1997
 1105UNK    H02 9939  28.420   3.559   7.252  1.4291 -1.2978 -0.4346
 1105UNK    C03 9940  28.605   3.554   7.138 -0.4908  0.2416 -0.4928
 1105UNK    C04 9941  28.663   3.425   7.165  0.4390  0.0389 -0.2123
 1105UNK    F05 9942  28.793   3.424   7.130 -0.3958 -0.3879 -0.3228
 1105UNK    F06 9943  28.642   3.398   7.297  0.3120  0.3596 -0.5676
 1105UNK    F07 9944  28.594   3.334   7.091 -0.2479 -0.0165 -0.3448
 1105UNK    H08 9945  28.673   3.621   7.087 -0.9882  1.3431  0.2809
 1106UNK    F00 9946  27.029   1.050   4.512 -0.1082  0.3537  0.1716
 1106UNK    C01 9947  27.090   0.937   4.519 -0.0466  0.8207  0.0097
 1106UNK    H02 9948  27.123   0.920   4.621  1.3426 -1.6271 -0.8099
 1106UNK    C03 9949  27.100   0.858   4.409 -0.2887 -0.1977 -0.2450
 1106UNK    C04 9950  27.193   0.880   4.298  0.0329 -0.3367  0.2566
 1106UNK    F05 9951  27.161   0.811   4.186 -0.3129  0.4904  0.6257
 1106UNK    F06 9952  27.190   1.010   4.268 -0.1070  0.2354 -0.2318
 1106UNK    F07 9953  27.323   0.843   4.325 -0.4842 -0.3672 -0.2644
 1106UNK    H08 9954  27.004   0.822   4.375 -1.2444  1.0344  1.0863
 1107UNK    F00 9955  26.795   1.499  10.046 -0.2157 -0.1698  0.1172
 1107UNK    C01 9956  26.822   1.627  10.091 -0.0789 -0.1695 -0.2573
 1107UNK    H02 9957  26.755   1.695  10.038 -0.2578 -0.5846 -0.5654
 1107UNK    C03 9958  26.947   1.640  10.128 -0.1602 -0.1328 -0.2316
 1107UNK    C04 9959  27.011   1.541  10.218 -0.2706 -0.5605  0.8146
 1107UNK    F05 9960  27.033   1.426  10.147 -0.1721 -0.1817  0.2695
 1107UNK    F06 9961  27.118   1.595  10.279  0.4473  0.1907  0.1755
 1107UNK    F07 9962  26.930   1.501  10.315  0.1397 -0.0508 -0.2100
 1107UNK    H08 9963  26.972   1.742  10.152  0.3713 -0.4125  0.3977
 1108UNK    F00 9964  27.175   2.743   9.099  0.0341 -0.1417 -0.4490
 1108UNK    C01 9965  27.229   2.823   9.199  0.1780  0.5180  1.0788
 1108UNK    H02 9966  27.337   2.826   9.213  0.1027  0.9322  1.5569
 1108UNK    C03 9967  27.147   2.887   9.279 -0.1535  0.1922 -0.3839
 1108UNK    C04 9968  27.015   2.822   9.313 -0.0635 -0.1481 -0.6565
 1108UNK    F05 9969  27.049   2.716   9.383  0.2061 -0.2636  0.0327
 1108UNK    F06 9970  26.937   2.897   9.394  0.4249  0.0728  0.2669
 1108UNK    F07 9971  26.940   2.786   9.199  0.2446 -0.6412 -0.1356
 1108UNK    H08 9972  27.134   2.993   9.263 -0.1186  0.0308 -1.5135
 1109UNK    F00 9973  24.489   2.251   8.471  0.3400  0.3949  0.2110
 1109UNK    C01 9974  24.587   2.339   8.502 -0.0702 -0.6326  0.0298
 1109UNK    H02 9975  24.580   2.374   8.606  2.2751 -1.5413  0.5234
 1109UNK    C03 9976  24.693   2.347   8.423  0.5668  0.4944 -0.6284
 1109UNK    C04 9977  24.817   2.412   8.458 -0.5058 -0.8619  0.0909
 1109UNK    F05 9978  24.894   2.330   8.527  0.1583 -0.5029  0.2593
 1109UNK    F06 9979  24.882   2.459   8.343 -0.0758 -0.5260  0.0706
 1109UNK    F07 9980  24.799   2.528   8.526  0.2455  0.1069  0.0849
 1109UNK    H08 9981  24.676   2.328   8.318 -0.8781  0.3038 -0.3808
 1110UNK    F00 9982  26.351   3.057   5.199  0.9509  0.0865  0.1440
 1110UNK    C01 9983  26.448   2.965   5.223  0.0749 -0.2953 -0.0553
 1110UNK    H02 9984  26.449   2.944   5.330 -3.6482  2.2444  0.5773
 1110UNK    C03 9985  26.542   2.929   5.133  0.5568 -0.1166  0.0176
 1110UNK    C04 9986  26.545   2.790   5.087  0.2720 -0.3221 -0.0714
 1110UNK    F05 9987  26.561   2.706   5.188  0.2463 -0.2446  0.2258
 1110UNK    F06 9988  26.434   2.759   5.014 -0.0662 -0.1360  0.2447
 1110UNK    F07 9989  26.648   2.765   4.996 -0.2142 -0.7540 -0.0981
 1110UNK    H08 9990  26.564   3.000   5.055 -0.7749  0.6964  0.3583
 1111UNK    F00 9991  28.076   1.773   9.305 -0.2617 -0.2820 -0.0692
 1111UNK    C01 9992  28.195   1.719   9.288 -0.0968 -0.1808 -0.1256
 1111UNK    H02 9993  28.265   1.773   9.351  2.7624 -0.6142 -2.8050
 1111UNK    C03 9994  28.182   1.585   9.270 -0.0712 -0.1427  0.2426
 1111UNK    C04 9995  28.165   1.513   9.142  0.1731  0.4146 -0.1041
 1111UNK    F05 9996  28.278   1.495   9.069  0.1298 -0.0880  0.4182
 1111UNK    F06 9997  28.118   1.385   9.149 -0.0605  0.4956  0.1517
 1111UNK    F07 9998  28.074   1.573   9.061 -0.5797  0.4241 -0.0536
 1111UNK    H08 9999  28.136   1.528   9.350 -0.3493  0.4696  0.5258
 1112UNK    F0010000  27.075   2.321   8.317 -0.5406  0.1803 -0.0570
 1112UNK    C0110001  27.196   2.335   8.380  0.9887 -0.3204  0.3524
 1112UNK    H0210002  27.268   2.277   8.321  1.0506 -0.4539  0.5561
 1112UNK    C0310003  27.220   2.442   8.457 -0.0983 -0.3783  0.3738
 1112UNK    C0410004  27.149   2.461   8.586  0.2849  0.5841  0.5768
 1112UNK    F0510005  27.194   2.383   8.687  0.4158 -0.2881 -0.2229
 1112UNK    F0610006  27.154   2.587   8.640 -0.0866  0.3279  0.0431
 1112UNK    F0710007  27.017   2.433   8.564 -0.5533 -0.6476  0.1549
 1112UNK    H0810008  27.287   2.520   8.423  0.1571 -0.5040  0.5915
 1113UNK    F0010009  28.553   0.412   8.272 -0.5007 -0.0090  0.1107
 1113UNK    C0110010  28.574   0.311   8.181 -0.0380 -0.5016 -0.3637
 1113UNK    H0210011  28.568   0.354   8.081 -0.8773 -1.5996 -0.8046
 1113UNK    C0310012  28.568   0.180   8.212 -0.1217 -0.2843 -0.3547
 1113UNK    C0410013  28.617   0.072   8.130  0.1197 -0.1923  0.7095
 1113UNK    F0510014  28.514   0.004   8.072 -0.2261  0.2980 -0.4112
 1113UNK    F0610015  28.710   0.110   8.039  0.4464  0.9348  0.0061
 1113UNK    F0710016  28.677  -0.014   8.209  0.2514  0.1620  0.0244
 1113UNK    H0810017  28.550   0.147   8.313  1.3043 -1.3572 -0.4280
 1114UNK    F0010018  27.917   0.311   5.852  0.1427  0.4941  0.0152
 1114UNK    C0110019  28.035   0.379   5.846 -0.3003 -0.0033 -0.1335
 1114UNK    H0210020  28.022   0.482   5.877 -1.5378 -0.9758  2.7785
 1114UNK    C0310021  28.143   0.307   5.837 -0.3879  1.0468 -0.6624
 1114UNK    C0410022  28.189   0.268   5.705  0.6350 -0.3804 -0.5073
 1114UNK    F0510023  28.264   0.157   5.707 -0.3003  0.0623 -0.0666
 1114UNK    F0610024  28.093   0.255   5.613 -0.1733  0.0847 -0.1225
 1114UNK    F0710025  28.269   0.363   5.654  0.6684  0.2812 -0.2111
 1114UNK    H0810026  28.167   0.244   5.921 -0.2807  0.4100 -1.1680
 1115UNK    F0010027  27.014   2.908   7.960 -0.3931  0.2132  0.5915
 1115UNK    C0110028  27.049   2.823   8.061  0.1893 -0.2046 -0.2246
 1115UNK    H0210029  27.087   2.875   8.149 -2.5123 -2.1237  2.1623
 1115UNK    C0310030  26.982   2.712   8.057 -0.0176  0.2095 -0.2484
 1115UNK    C0410031  26.945   2.635   8.180 -0.5715 -0.6907  0.3733
 1115UNK    F0510032  26.928   2.504   8.143 -0.0475  0.1258  0.4165
 1115UNK    F0610033  27.044   2.640   8.271 -0.0795 -0.0528  0.5216
 1115UNK    F0710034  26.830   2.680   8.234 -0.0356 -0.2744  0.2750
 1115UNK    H0810035  26.912   2.700   7.976 -1.7983 -0.9553  1.4116
 1116UNK    F0010036  27.879   1.770   5.557 -0.3226 -0.1051 -0.3078
 1116UNK    C0110037  27.894   1.797   5.425 -0.4790 -0.4444  0.2461
 1116UNK    H0210038  27.800   1.826   5.378 -0.3295 -0.8094 -0.2831
 1116UNK    C0310039  28.016   1.780   5.375 -0.1679  0.8117 -0.1531
 1116UNK    C0410040  28.140   1.788   5.454 -0.0484  0.7892  0.6100
 1116UNK    F0510041  28.164   1.674   5.530 -0.3891 -0.0756  0.0438
 1116UNK    F0610042  28.246   1.810   5.371 -0.5377  0.0444  0.6421
 1116UNK    F0710043  28.134   1.897   5.532 -0.0683 -0.0585 -0.3116
 1116UNK    H0810044  28.033   1.787   5.268  0.9356 -0.4854 -0.0715
 1117UNK    F0010045  24.896   3.321   6.849  0.1429  0.2695 -0.2028
 1117UNK    C0110046  24.891   3.375   6.726 -0.1847  0.0153  0.2456
 1117UNK    H0210047  24.791   3.380   6.684 -0.1269 -2.7629 -0.2789
 1117UNK    C0310048  25.005   3.397   6.659  0.2445 -0.3959  1.1514
 1117UNK    C0410049  25.028   3.482   6.541 -0.3682 -0.5032 -0.0458
 1117UNK    F0510050  25.069   3.606   6.575 -0.1174  0.6027  0.0351
 1117UNK    F0610051  25.107   3.424   6.457 -0.4573  0.0656 -0.1115
 1117UNK    F0710052  24.917   3.479   6.466 -0.4559 -0.7172 -0.3984
 1117UNK    H0810053  25.096   3.391   6.717  0.1293  1.4982  1.5452
 1118UNK    F0010054  26.775   0.794   4.883  0.0141  0.6433  0.4278
 1118UNK    C0110055  26.687   0.855   4.806 -0.7378 -0.2369  0.3047
 1118UNK    H0210056  26.657   0.951   4.847  3.7546  1.3569  0.1375
 1118UNK    C0310057  26.637   0.786   4.708 -0.0051 -0.2142  0.4637
 1118UNK    C0410058  26.595   0.869   4.588  0.4349  0.2069  0.1393
 1118UNK    F0510059  26.521   0.795   4.505  0.1643 -0.0682 -0.3067
 1118UNK    F0610060  26.525   0.978   4.614 -0.0779  0.3570  0.2985
 1118UNK    F0710061  26.693   0.918   4.505  0.5366 -0.2220 -0.3687
 1118UNK    H0810062  26.683   0.690   4.688  1.0336 -0.6229  4.3423
 1119UNK    F0010063  28.223   4.252  11.969 -0.0275 -0.2265 -0.5693
 1119UNK    C0110064  28.141   4.192  12.053 -0.0775 -0.4230 -0.2004
 1119UNK    H0210065  28.156   4.246  12.146  0.8786 -0.3211 -0.4039
 1119UNK    C0310066  28.015   4.161  12.015  0.2426 -0.0224  0.4464
 1119UNK    C0410067  27.923   4.090  12.105 -0.3302  0.3195  0.1236
 1119UNK    F0510068  27.895   4.161  12.214 -0.4941  0.4151  0.0197
 1119UNK    F0610069  27.809   4.062  12.033 -0.0811  0.1231  0.4881
 1119UNK    F0710070  27.975   3.967  12.139  0.6322  0.0395  0.3904
 1119UNK    H0810071  27.992   4.138  11.912 -1.3832  0.8462  0.5883
 1120UNK    F0010072  28.429   3.160   8.446  0.6265  0.0584 -0.4400
 1120UNK    C0110073  28.530   3.114   8.378 -0.3188  0.4134  0.1272
 1120UNK    H0210074  28.576   3.028   8.429 -3.1963 -0.9081  0.5676
 1120UNK    C0310075  28.567   3.191   8.279  0.3986 -0.0768 -0.0386
 1120UNK    C0410076  28.643   3.145   8.159  0.3274 -0.1598  0.0169
 1120UNK    F0510077  28.743   3.062   8.193  0.2986 -0.6245  0.2999
 1120UNK    F0610078  28.569   3.059   8.080 -0.2817  0.2009 -0.5109
 1120UNK    F0710079  28.697   3.245   8.082  0.0108 -0.2920  0.5344
 1120UNK    H0810080  28.508   3.281   8.268 -0.1841 -0.4291  0.1802
 1121UNK    F0010081  26.190   3.028  10.057  0.2724 -0.2243 -0.3569
 1121UNK    C0110082  26.245   3.080  10.166 -0.2298  0.2560 -0.3039
 1121UNK    H0210083  26.252   3.012  10.251 -1.5778  2.2887  1.4833
 1121UNK    C0310084  26.271   3.207  10.165 -0.0293 -0.2214  0.1058
 1121UNK    C0410085  26.379   3.277  10.239 -0.2492 -0.2775  0.2234
 1121UNK    F0510086  26.503   3.276  10.183 -0.2199  0.2420  0.0180
 1121UNK    F0610087  26.343   3.402  10.277  0.2057 -0.0460  0.1694
 1121UNK    F0710088  26.393   3.220  10.361 -0.4388  0.7332 -0.0929
 1121UNK    H0810089  26.211   3.268  10.098 -1.1510 -2.2427 -0.7865
 1122UNK    F0010090  25.271   0.163   5.581 -0.1559 -0.0589  0.0106
 1122UNK    C0110091  25.288   0.242   5.470 -0.2531  0.5597  0.1409
 1122UNK    H0210092  25.199   0.230   5.408  0.3151 -2.7492 -0.0904
 1122UNK    C0310093  25.378   0.343   5.476  0.0549  0.0595  0.3924
 1122UNK    C0410094  25.377   0.465   5.394 -0.6348  0.6479  0.7828
 1122UNK    F0510095  25.274   0.542   5.432  0.1308  0.0613  0.2837
 1122UNK    F0610096  25.499   0.532   5.412  0.4094 -0.8832  0.1503
 1122UNK    F0710097  25.370   0.433   5.259  0.1588 -0.0549  0.3812
 1122UNK    H0810098  25.403   0.367   5.578 -3.0002 -1.4871  1.5967
 1123UNK    F0010099  23.915   1.804   7.923  0.2664  0.4284  0.0348
 1123UNK    C0110100  23.962   1.889   8.016  0.5243 -0.0200  0.1825
 1123UNK    H0210101  23.944   1.992   7.986  1.4022 -0.5475 -2.2565
 1123UNK    C0310102  24.076   1.852   8.066 -0.7077 -1.0059 -0.0005
 1123UNK    C0410103  24.209   1.882   8.014 -0.1883 -0.5733 -0.0761
 1123UNK    F0510104  24.307   1.796   8.063  0.1948 -0.0535 -0.1544
 1123UNK    F0610105  24.213   1.864   7.873 -0.1662  0.2581 -0.3026
 1123UNK    F0710106  24.240   2.008   8.047  0.5111 -0.0298 -0.3621
 1123UNK    H0810107  24.063   1.797   8.158  1.6238 -4.0264 -1.3927
 1124UNK    F0010108  25.075   4.727   5.404 -0.0444  0.5790 -0.0611
 1124UNK    C0110109  25.059   4.595   5.395 -0.3720 -1.1788 -0.0181
 1124UNK    H0210110  25.150   4.550   5.355  0.6118 -0.1668  1.0301
 1124UNK    C0310111  24.943   4.541   5.395 -0.0429  0.0584  0.2764
 1124UNK    C0410112  24.827   4.592   5.462 -0.2361  0.4648 -0.1304
 1124UNK    F0510113  24.786   4.706   5.406 -0.3163 -0.0970  0.3112
 1124UNK    F0610114  24.727   4.508   5.470 -0.0985 -0.0767 -0.1222
 1124UNK    F0710115  24.852   4.597   5.599 -0.5304 -0.3294 -0.5423
 1124UNK    H0810116  24.943   4.437   5.367  1.5434  0.1631 -0.1702
 1125UNK    F0010117  29.707   2.104   9.172 -0.3847  0.5329  0.1238
 1125UNK    C0110118  29.755   1.978   9.178 -0.2027 -0.0106 -0.2582
 1125UNK    H0210119  29.816   1.952   9.091  0.6498 -3.5984  1.3347
 1125UNK    C0310120  29.743   1.899   9.284 -0.3411 -0.5083 -0.1799
 1125UNK    C0410121  29.620   1.821   9.308 -0.4671 -0.9101 -0.1385
 1125UNK    F0510122  29.657   1.694   9.286  0.6499  0.1198  0.0026
 1125UNK    F0610123  29.578   1.830   9.433  0.2790 -0.0879  0.4324
 1125UNK    F0710124  29.522   1.865   9.227  0.3569  0.1201  0.6158
 1125UNK    H0810125  29.835   1.878   9.335 -1.2148 -2.2086  0.7501
 1126UNK    F0010126  27.953   2.461   7.796  0.2629  0.1333 -0.2697
 1126UNK    C0110127  27.916   2.550   7.703  0.5724  0.0973  0.6861
 1126UNK    H0210128  28.008   2.602   7.676 -0.8584  1.1628 -2.3802
 1126UNK    C0310129  27.823   2.511   7.612  0.6060  0.1075 -0.7231
 1126UNK    C0410130  27.782   2.586   7.491  0.0820  0.0046 -0.2305
 1126UNK    F0510131  27.654   2.565   7.458  0.1527 -0.0692  0.5346
 1126UNK    F0610132  27.799   2.718   7.505 -0.0033  0.0268  0.3929
 1126UNK    F0710133  27.868   2.544   7.390 -0.4531 -0.1976  0.4185
 1126UNK    H0810134  27.791   2.408   7.610 -1.8328  0.7832  1.0017
 1127UNK    F0010135  29.703   4.385   8.334 -0.1998  0.0440  0.2706
 1127UNK    C0110136  29.793   4.326   8.253  0.0851 -0.4730  0.2417
 1127UNK    H0210137  29.881   4.390   8.241  1.2101 -1.8392  1.0363
 1127UNK    C0310138  29.765   4.204   8.209 -1.1665 -0.3444  0.2839
 1127UNK    C0410139  29.695   4.173   8.089  0.4238  0.2883 -0.1329
 1127UNK    F0510140  29.608   4.073   8.108  0.6968  0.3989  0.5935
 1127UNK    F0610141  29.617   4.273   8.049  0.0127  0.6505 -0.5268
 1127UNK    F0710142  29.769   4.137   7.984  0.0738  0.3415 -0.2887
 1127UNK    H0810143  29.817   4.117   8.248  0.3521  0.0579 -0.7734
 1128UNK    F0010144  29.256   0.324   8.392 -0.2518 -0.1698  0.3214
 1128UNK    C0110145  29.186   0.300   8.278  0.6059 -0.5126 -0.7443
 1128UNK    H0210146  29.163   0.395   8.229  0.1463 -0.0344  0.3882
 1128UNK    C0310147  29.130   0.183   8.261 -0.0224 -0.2679 -0.1485
 1128UNK    C0410148  29.136   0.086   8.152 -0.2188 -0.1559  0.0036
 1128UNK    F0510149  29.019   0.014   8.144 -0.5075 -0.2648  0.5224
 1128UNK    F0610150  29.117   0.163   8.040 -0.4485 -0.0679  0.4713
 1128UNK    F0710151  29.248   0.010   8.155  0.3315 -0.5412  0.2106
 1128UNK    H0810152  29.048   0.159   8.327 -0.5552  0.5327 -0.5131
 1129UNK    F0010153  27.541   0.040   9.755 -0.5384  0.1379  0.2838
 1129UNK    C0110154  27.474   0.145   9.796 -0.6555 -0.0504 -0.7707
 1129UNK    H0210155  27.530   0.235   9.770 -0.9608  1.0639  2.1963
 1129UNK    C0310156  27.343   0.140   9.823  1.0434 -0.4928 -0.1875
 1129UNK    C0410157  27.253   0.257   9.812  0.3819 -0.4322  0.0693
 1129UNK    F0510158  27.219   0.291   9.689 -0.0024 -0.3885  0.2283
 1129UNK    F0610159  27.132   0.242   9.883  0.6825 -0.3158 -0.0297
 1129UNK    F0710160  27.316   0.364   9.867 -0.4410 -0.0647 -0.5480
 1129UNK    H0810161  27.302   0.052   9.870  0.5392 -0.8640 -1.3037
 1130UNK    F0010162  26.061   1.490   3.480  0.3663 -0.2228 -0.1701
 1130UNK    C0110163  26.057   1.391   3.391  0.1154 -0.6259  0.2395
 1130UNK    H0210164  26.104   1.302   3.432  1.5643 -0.8743 -1.8593
 1130UNK    C0310165  26.020   1.412   3.264  0.2812 -1.1568 -0.1809
 1130UNK    C0410166  26.113   1.460   3.162 -0.2102  0.2811 -0.3375
 1130UNK    F0510167  26.166   1.575   3.200 -0.0365  0.4353 -0.1447
 1130UNK    F0610168  26.210   1.363   3.145 -0.2078 -0.2228 -0.0105
 1130UNK    F0710169  26.051   1.486   3.045 -0.1191  0.0863 -0.5331
 1130UNK    H0810170  25.926   1.378   3.223 -0.6729  0.3178  0.7659
 1131UNK    F0010171  28.819   4.162   4.749  0.3467 -0.1712  0.3107
 1131UNK    C0110172  28.770   4.286   4.714 -0.4227  0.5096  0.3587
 1131UNK    H0210173  28.763   4.294   4.606  1.5357  3.3194  0.3940
 1131UNK    C0310174  28.767   4.383   4.802  0.1182  0.4250 -0.0271
 1131UNK    C0410175  28.684   4.503   4.772 -0.2438  0.3193 -0.2261
 1131UNK    F0510176  28.732   4.606   4.843 -0.7135 -0.5035 -0.1723
 1131UNK    F0610177  28.673   4.531   4.634 -0.4001 -0.1200  0.0690
 1131UNK    F0710178  28.551   4.491   4.800  0.4852 -0.2167 -0.1207
 1131UNK    H0810179  28.854   4.401   4.862 -1.1220 -0.6775  2.1526
 1132UNK    F0010180  28.551   4.682   8.249 -0.5267  0.0819 -0.3177
 1132UNK    C0110181  28.482   4.769   8.318  0.4549 -0.8674  0.4344
 1132UNK    H0210182  28.536   4.863   8.333 -1.3575  0.2204  0.4113
 1132UNK    C0310183  28.372   4.723   8.378  0.1360 -0.6774  0.8888
 1132UNK    C0410184  28.369   4.675   8.513  0.0167  0.2190  0.1160
 1132UNK    F0510185  28.266   4.587   8.531  0.3285 -0.3000 -0.4379
 1132UNK    F0610186  28.480   4.614   8.558 -0.3048  0.4769  0.2818
 1132UNK    F0710187  28.349   4.773   8.606 -0.2941 -0.9953  0.3180
 1132UNK    H0810188  28.302   4.681   8.308  0.1952 -0.1380  0.5032
 1133UNK    F0010189  26.394   2.661   6.766 -0.1168 -0.4697  0.3324
 1133UNK    C0110190  26.371   2.538   6.718 -0.0363  0.2767  0.1810
 1133UNK    H0210191  26.414   2.522   6.619 -0.2824 -0.8950  0.2658
 1133UNK    C0310192  26.279   2.466   6.786 -0.4907 -0.5847  0.5773
 1133UNK    C0410193  26.137   2.492   6.778  0.2706 -0.1902  0.0949
 1133UNK    F0510194  26.092   2.623   6.773 -0.1758  0.0899  0.6717
 1133UNK    F0610195  26.090   2.434   6.665  0.1450 -0.4074  0.1658
 1133UNK    F0710196  26.061   2.436   6.881 -0.2397 -0.1328 -0.2452
 1133UNK    H0810197  26.319   2.399   6.860  2.1200 -1.3803 -1.4849
 1134UNK    F0010198  26.300   2.269   7.039 -0.1264 -0.0614 -0.4750
 1134UNK    C0110199  26.286   2.305   7.169  0.0325 -0.7883  0.1962
 1134UNK    H0210200  26.186   2.337   7.196  0.0982 -0.8872  0.5534
 1134UNK    C0310201  26.376   2.256   7.253  0.4048 -0.5241 -0.1715
 1134UNK    C0410202  26.358   2.237   7.395 -0.4651 -0.0945 -0.3261
 1134UNK    F0510203  26.347   2.353   7.460  0.4025 -0.6207 -0.0685
 1134UNK    F0610204  26.243   2.168   7.425 -0.3880 -0.1245  0.3339
 1134UNK    F0710205  26.465   2.174   7.457  0.2271 -0.4088  0.1276
 1134UNK    H0810206  26.480   2.263   7.226 -0.1296  1.1133 -1.8942
 1135UNK    F0010207  26.785   4.260   8.059  0.0367  0.2766 -0.0285
 1135UNK    C0110208  26.827   4.316   8.171 -0.1227  0.2761 -0.1854
 1135UNK    H0210209  26.754   4.336   8.250  2.4277 -0.3142  2.4322
 1135UNK    C0310210  26.959   4.344   8.179  0.5729  0.3587 -0.4484
 1135UNK    C0410211  27.067   4.251   8.157  0.3789  0.5697  0.1016
 1135UNK    F0510212  27.165   4.265   8.242 -0.3019  0.2562  0.1490
 1135UNK    F0610213  27.034   4.119   8.171  0.0368  0.3876  0.1788
 1135UNK    F0710214  27.114   4.271   8.030  0.2780 -0.1353  0.4886
 1135UNK    H0810215  26.992   4.446   8.181 -1.0433  0.9190 -1.2322
 1136UNK    F0010216  25.387   2.965   9.953  0.2237  0.2168 -0.1986
 1136UNK    C0110217  25.278   2.887   9.955  0.3418 -0.4998 -0.4495
 1136UNK    H0210218  25.274   2.818  10.040 -0.3903  0.1878  0.0858
 1136UNK    C0310219  25.178   2.912   9.874 -0.3660  0.2855  0.2838
 1136UNK    C0410220  25.048   2.851   9.906 -0.6916  0.2484  0.0185
 1136UNK    F0510221  24.994   2.892  10.022 -0.0475  0.0412 -0.0379
 1136UNK    F0610222  24.960   2.855   9.803  0.0281  0.2228 -0.2000
 1136UNK    F0710223  25.070   2.719   9.932  0.3259  0.1144  0.1089
 1136UNK    H0810224  25.175   2.955   9.775 -0.0282 -0.0169  0.1427
 1137UNK    F0010225  27.329   2.543   7.941  0.0767 -0.0270  0.4496
 1137UNK    C0110226  27.409   2.437   7.911 -0.1668  0.2010  0.1998
 1137UNK    H0210227  27.494   2.430   7.979 -0.0407  0.1618  0.0318
 1137UNK    C0310228  27.355   2.341   7.842  0.0612 -0.2609  0.4880
 1137UNK    C0410229  27.400   2.204   7.853  0.1714 -0.3591 -0.5028
 1137UNK    F0510230  27.368   2.135   7.973 -0.3173 -0.2965  0.1294
 1137UNK    F0610231  27.344   2.126   7.756 -0.0986 -0.5950  0.0287
 1137UNK    F0710232  27.535   2.201   7.840 -0.5349 -0.6158 -0.1844
 1137UNK    H0810233  27.289   2.355   7.757  1.3456 -1.0198 -0.6569
 1138UNK    F0010234  28.598   1.112   8.823  0.3520 -0.2046 -0.3333
 1138UNK    C0110235  28.640   1.135   8.953  0.3078 -0.1396  0.4612
 1138UNK    H0210236  28.724   1.068   8.973 -0.2954 -1.4829 -1.3682
 1138UNK    C0310237  28.577   1.220   9.033  0.8320  0.0723 -0.5820
 1138UNK    C0410238  28.615   1.262   9.167  0.1493  0.5101 -0.2140
 1138UNK    F0510239  28.728   1.334   9.166 -0.2801  0.4229 -0.0524
 1138UNK    F0610240  28.510   1.334   9.215  0.1238 -0.4028 -0.0280
 1138UNK    F0710241  28.631   1.158   9.255  0.1963 -0.0492  0.1395
 1138UNK    H0810242  28.499   1.279   8.988  0.9102  0.7260  0.1388
 1139UNK    F0010243  23.048   4.475   6.404  1.0305  0.2303  0.7783
 1139UNK    C0110244  23.124   4.368   6.432 -0.0320 -0.2140  0.2591
 1139UNK    H0210245  23.169   4.334   6.339  0.1619  2.8354 -0.8389
 1139UNK    C0310246  23.074   4.281   6.514 -0.8122 -0.1022 -0.6567
 1139UNK    C0410247  23.148   4.159   6.541 -0.1903 -0.3501  0.3555
 1139UNK    F0510248  23.209   4.170   6.663 -0.1815  0.1091 -0.4980
 1139UNK    F0610249  23.060   4.051   6.546  0.1040 -0.5239  0.6217
 1139UNK    F0710250  23.252   4.141   6.455 -0.8688 -0.4138 -0.4927
 1139UNK    H0810251  22.978   4.290   6.563 -0.8776 -1.0591 -0.6019
 1140UNK    F0010252  27.156   4.267   7.476 -0.0610 -0.0371 -0.3346
 1140UNK    C0110253  27.138   4.205   7.367 -0.0378  0.1778  0.0738
 1140UNK    H0210254  27.230   4.185   7.312 -0.7873 -2.0865 -0.4245
 1140UNK    C0310255  27.022   4.178   7.320 -0.0981 -0.2271 -0.1995
 1140UNK    C0410256  26.941   4.272   7.237  0.2935 -0.2910  0.0090
 1140UNK    F0510257  26.924   4.394   7.292 -0.1856 -0.0564  0.1313
 1140UNK    F0610258  27.000   4.294   7.115  0.1682  0.0141 -0.3210
 1140UNK    F0710259  26.822   4.225   7.201 -0.6117  0.3533  0.2993
 1140UNK    H0810260  26.965   4.095   7.358 -1.9121  1.1649  0.2240
 1141UNK    F0010261  29.219   3.747   7.718  0.4367 -0.3243 -0.2119
 1141UNK    C0110262  29.303   3.683   7.636 -0.3072  0.1614  0.7937
 1141UNK    H0210263  29.299   3.574   7.645  0.0492  0.3397  3.6007
 1141UNK    C0310264  29.391   3.753   7.563  0.4109 -0.5341  0.1123
 1141UNK    C0410265  29.482   3.702   7.459 -0.4033  0.7610 -0.8375
 1141UNK    F0510266  29.405   3.687   7.344  0.3002  0.2804  0.2647
 1141UNK    F0610267  29.582   3.797   7.431  0.4178  0.3002  0.0079
 1141UNK    F0710268  29.525   3.578   7.490 -0.3581 -0.2936 -0.7709
 1141UNK    H0810269  29.437   3.843   7.601 -1.5164 -0.1507  1.6389
 1142UNK    F0010270  27.798   2.243   6.483  0.2724 -0.5603 -0.3630
 1142UNK    C0110271  27.770   2.167   6.586  0.4291 -0.1217 -0.6758
 1142UNK    H0210272  27.728   2.072   6.553 -0.5541  0.0973 -0.0888
 1142UNK    C0310273  27.839   2.182   6.698 -0.0223 -0.2931  0.7044
 1142UNK    C0410274  27.988   2.193   6.706 -0.4779  0.1518 -0.0559
 1142UNK    F0510275  28.049   2.133   6.602 -0.5561  0.3739  0.1032
 1142UNK    F0610276  28.032   2.321   6.704 -0.2264 -0.0660 -0.0912
 1142UNK    F0710277  28.036   2.131   6.816 -0.6300 -0.1831  0.0079
 1142UNK    H0810278  27.798   2.254   6.768  0.9531 -0.1217  1.1033
 1143UNK    F0010279  29.838   4.119   7.565  0.2823 -0.4006  0.2512
 1143UNK    C0110280  29.781   4.240   7.547 -0.4605 -0.2654  0.6162
 1143UNK    H0210281  29.852   4.300   7.489  0.2111 -2.4994 -0.9464
 1143UNK    C0310282  29.649   4.247   7.548 -0.4828 -0.6042  0.3126
 1143UNK    C0410283  29.581   4.374   7.508 -0.2480 -1.1211  0.6558
 1143UNK    F0510284  29.468   4.384   7.579 -0.2340  0.2869  0.3627
 1143UNK    F0610285  29.657   4.486   7.530  0.1655 -0.6048  0.5102
 1143UNK    F0710286  29.530   4.377   7.384  0.3700  0.2701 -0.7450
 1143UNK    H0810287  29.594   4.168   7.500 -0.7402 -0.6517  0.6924
 1144UNK    F0010288  24.482   2.639   7.891 -0.7837 -0.1170  0.4578
 1144UNK    C0110289  24.530   2.511   7.901 -0.6948 -0.0472  0.1834
 1144UNK    H0210290  24.629   2.510   7.947  0.5038 -1.2340 -2.3379
 1144UNK    C0310291  24.468   2.403   7.857  0.9824 -0.1605 -0.5322
 1144UNK    C0410292  24.492   2.275   7.926 -0.2621 -0.2347  0.2927
 1144UNK    F0510293  24.451   2.271   8.055 -0.2486 -0.0522  0.6961
 1144UNK    F0610294  24.408   2.184   7.874  0.7239  0.0319  0.7431
 1144UNK    F0710295  24.619   2.232   7.906 -0.1236 -0.3917 -0.1714
 1144UNK    H0810296  24.432   2.401   7.755  0.2055  1.6420 -0.3228
 1145UNK    F0010297  26.377   3.017   8.147 -0.5215  0.2875 -0.4527
 1145UNK    C0110298  26.263   3.044   8.089 -0.3319 -0.4138 -0.3309
 1145UNK    H0210299  26.220   3.138   8.124 -0.9125 -0.0874 -1.8782
 1145UNK    C0310300  26.231   2.974   7.983  0.3722 -0.7343 -0.2780
 1145UNK    C0410301  26.293   2.960   7.852 -0.6828  0.2926  0.4351
 1145UNK    F0510302  26.314   3.082   7.803 -0.2705  0.0555  0.3115
 1145UNK    F0610303  26.407   2.893   7.857 -0.3482  0.3366 -0.1321
 1145UNK    F0710304  26.210   2.893   7.763 -0.6675 -0.1112 -0.2919
 1145UNK    H0810305  26.130   2.938   7.977  0.1468 -0.3718  1.0926
 1146UNK    F0010306  23.111   3.921   7.511  0.3860 -0.1598 -0.0553
 1146UNK    C0110307  23.112   3.882   7.380 -0.0150  0.1965 -0.5177
 1146UNK    H0210308  23.216   3.864   7.352  1.3320  1.9221  3.0210
 1146UNK    C0310309  23.008   3.932   7.306  0.2636  0.4810  0.2924
 1146UNK    C0410310  22.963   3.860   7.178 -0.2134  0.1811  0.0576
 1146UNK    F0510311  22.910   3.746   7.212 -0.2326  0.6258  0.0729
 1146UNK    F0610312  22.869   3.933   7.112  0.2410 -0.5206 -0.3864
 1146UNK    F0710313  23.061   3.834   7.089  0.3896  0.1442 -0.0231
 1146UNK    H0810314  22.929   3.992   7.347 -0.4947  1.0347 -1.9386
 1147UNK    F0010315  27.512   1.393   8.226  0.2768 -0.1401  0.6856
 1147UNK    C0110316  27.508   1.440   8.350 -0.3149 -0.5106 -0.1712
 1147UNK    H0210317  27.433   1.513   8.379  0.9721  0.8895 -0.2911
 1147UNK    C0310318  27.608   1.404   8.428  0.0968 -0.2338  0.3112
 1147UNK    C0410319  27.734   1.482   8.437  0.3543  0.1303  0.3260
 1147UNK    F0510320  27.830   1.390   8.470  0.6903 -0.1912  0.3125
 1147UNK    F0610321  27.772   1.536   8.321 -0.0120  0.2997  0.0411
 1147UNK    F0710322  27.732   1.574   8.534  0.5072  0.2744 -0.0143
 1147UNK    H0810323  27.622   1.297   8.440  0.8132 -0.2067 -0.2245
 1148UNK    F0010324  24.311   3.011  10.097  0.7565  0.1862  0.0841
 1148UNK    C0110325  24.182   2.976  10.097 -0.1864 -0.3919 -0.2063
 1148UNK    H0210326  24.163   2.882  10.045 -0.7129 -0.6556  0.4595
 1148UNK    C0310327  24.089   3.055  10.154 -0.5521 -0.2342  0.1724
 1148UNK    C0410328  24.033   3.177  10.103  0.0875 -0.1907  0.1373
 1148UNK    F0510329  24.122   3.259  10.065  0.5240  0.1473  0.2614
 1148UNK    F0610330  23.955   3.156   9.995  0.2388  0.1689 -0.0947
 1148UNK    F0710331  23.950   3.229  10.199 -0.3576  0.3233 -0.1550
 1148UNK    H0810332  24.025   3.021  10.234 -2.1411  0.5925 -0.7381
 1149UNK    F0010333  25.725   1.765   4.827 -0.7200  0.1632  0.2300
 1149UNK    C0110334  25.800   1.748   4.938  1.2764  0.0247  0.0824
 1149UNK    H0210335  25.893   1.696   4.917  1.5273  0.6586 -0.3765
 1149UNK    C0310336  25.757   1.807   5.050 -0.5112 -0.5234 -0.0713
 1149UNK    C0410337  25.644   1.757   5.130 -0.2464 -0.1555  0.5445
 1149UNK    F0510338  25.622   1.850   5.227  0.2462  0.3084  0.3730
 1149UNK    F0610339  25.533   1.766   5.053 -0.5043 -0.1472  0.3042
 1149UNK    F0710340  25.657   1.637   5.189 -0.3752 -0.3873  0.0228
 1149UNK    H0810341  25.771   1.913   5.060  3.1983 -0.9188 -0.5655
 1150UNK    F0010342  24.962   2.308   7.140  0.1690 -0.2005  0.4589
 1150UNK    C0110343  25.083   2.366   7.155 -0.0628  0.3732 -0.1373
 1150UNK    H0210344  25.151   2.287   7.185  0.3548  0.3954 -1.0289
 1150UNK    C0310345  25.097   2.502   7.166 -0.1279 -0.3315 -0.0296
 1150UNK    C0410346  25.073   2.570   7.290  0.1241  0.5259 -0.3155
 1150UNK    F0510347  25.051   2.697   7.267 -0.4961 -0.0826  0.2674
 1150UNK    F0610348  24.975   2.514   7.365  0.5094  0.5344  0.2969
 1150UNK    F0710349  25.185   2.569   7.361 -0.3299  0.0816 -0.1638
 1150UNK    H0810350  25.070   2.565   7.082  0.8126 -1.2119 -1.0008
 1151UNK    F0010351  23.943   3.534   7.569 -0.6949 -0.1503  0.0381
 1151UNK    C0110352  23.848   3.447   7.581 -0.0439  0.1442 -0.3242
 1151UNK    H0210353  23.795   3.429   7.487  0.7779  0.9246 -0.9353
 1151UNK    C0310354  23.811   3.414   7.705 -0.1259  0.4152  0.1715
 1151UNK    C0410355  23.807   3.270   7.738  0.0703 -0.2579 -0.1173
 1151UNK    F0510356  23.926   3.225   7.792 -0.2795  0.1174 -0.4247
 1151UNK    F0610357  23.695   3.239   7.818 -0.3270  0.0821  0.0255
 1151UNK    F0710358  23.797   3.187   7.627  0.2196  0.4032 -0.4362
 1151UNK    H0810359  23.851   3.473   7.787  1.5238  1.3493 -1.2815
 1152UNK    F0010360  24.205   3.139   7.800  0.0264 -0.6317 -0.6822
 1152UNK    C0110361  24.263   3.030   7.749  0.3064  0.6468 -1.1373
 1152UNK    H0210362  24.197   2.943   7.749  0.3376  0.6263 -0.3008
 1152UNK    C0310363  24.376   3.032   7.682  0.7302 -0.8935  0.3050
 1152UNK    C0410364  24.511   3.015   7.746 -0.6546 -0.8916 -0.2506
 1152UNK    F0510365  24.585   2.913   7.694 -0.1234  0.4475  0.3065
 1152UNK    F0610366  24.574   3.130   7.714 -0.2099 -0.1207  0.0059
 1152UNK    F0710367  24.512   2.998   7.879  0.1537  0.6228 -0.4221
 1152UNK    H0810368  24.373   3.053   7.576 -2.2318  2.0445  0.9030
 1153UNK    F0010369  27.168   2.579   5.213  0.3404 -0.2560 -0.1897
 1153UNK    C0110370  27.219   2.624   5.102  0.1161 -0.5979 -0.6670
 1153UNK    H0210371  27.165   2.597   5.012 -2.7114  1.8142  0.2264
 1153UNK    C0310372  27.346   2.658   5.104 -0.3194  0.1112  0.1071
 1153UNK    C0410373  27.419   2.740   5.005 -0.5018 -0.9902 -0.3136
 1153UNK    F0510374  27.366   2.706   4.883 -0.2621  0.1976 -0.3889
 1153UNK    F0610375  27.411   2.878   5.022  0.6014  0.2135  0.0821
 1153UNK    F0710376  27.550   2.726   4.987  0.6094  0.2121  0.5118
 1153UNK    H0810377  27.399   2.661   5.198 -0.3427 -2.1353  0.2170
 1154UNK    F0010378  25.713   2.065   7.169  0.2544  0.4430 -0.1585
 1154UNK    C0110379  25.728   2.169   7.248  0.7507 -0.0044 -0.4286
 1154UNK    H0210380  25.668   2.160   7.338  0.1837  1.9125 -0.5854
 1154UNK    C0310381  25.752   2.285   7.193 -0.3501 -0.0022 -0.5219
 1154UNK    C0410382  25.817   2.388   7.279  0.2230 -0.4748 -0.4337
 1154UNK    F0510383  25.780   2.376   7.414 -0.1886  0.2111  0.3276
 1154UNK    F0610384  25.949   2.382   7.278 -0.2419  0.0423  0.7077
 1154UNK    F0710385  25.785   2.511   7.235 -0.1005 -0.7400  0.2387
 1154UNK    H0810386  25.730   2.321   7.093  0.1474 -0.6880 -0.8842
 1155UNK    F0010387  28.217   3.673   8.015  0.0807 -0.3559 -0.1165
 1155UNK    C0110388  28.233   3.743   7.900 -0.7613  0.1834  0.7065
 1155UNK    H0210389  28.150   3.809   7.874  0.1912  1.0298 -0.2845
 1155UNK    C0310390  28.348   3.726   7.833  0.2774  0.0087 -0.3685
 1155UNK    C0410391  28.356   3.741   7.683  0.2549  0.2132 -0.2914
 1155UNK    F0510392  28.260   3.690   7.600  0.0149  0.3051  0.0260
 1155UNK    F0610393  28.339   3.866   7.638 -0.2136 -0.8651  0.2297
 1155UNK    F0710394  28.470   3.688   7.627 -0.4706 -0.0520 -0.1813
 1155UNK    H0810395  28.429   3.663   7.867  0.7268  0.6189 -0.2869
 1156UNK    F0010396  24.469   3.549  10.545 -0.1431 -0.3626 -0.0029
 1156UNK    C0110397  24.560   3.639  10.576 -0.0917  0.3976 -0.5832
 1156UNK    H0210398  24.591   3.636  10.680  0.5217  1.3784 -0.7283
 1156UNK    C0310399  24.599   3.716  10.479  0.1596 -0.5040  0.4478
 1156UNK    C0410400  24.544   3.853  10.454 -0.4688 -0.4930 -0.3787
 1156UNK    F0510401  24.409   3.882  10.474 -0.3645  0.1377  0.7040
 1156UNK    F0610402  24.619   3.935  10.529 -0.0525 -0.2179  0.1106
 1156UNK    F0710403  24.580   3.893  10.331  0.2489 -0.0657  0.5162
 1156UNK    H0810404  24.702   3.713  10.447 -0.9397 -3.0731 -3.2080
 1157UNK    F0010405  26.113   0.930   7.899 -0.3107 -0.3322  0.2114
 1157UNK    C0110406  26.025   1.010   7.839 -0.4781  0.1023  0.4715
 1157UNK    H0210407  25.928   0.962   7.825 -0.0849 -0.4588 -0.3954
 1157UNK    C0310408  26.079   1.103   7.770 -0.3502  0.6560  0.0052
 1157UNK    C0410409  26.010   1.237   7.756 -0.5089 -0.1034 -0.3800
 1157UNK    F0510410  26.055   1.297   7.642  0.4399 -0.3054 -0.4916
 1157UNK    F0610411  25.879   1.234   7.732 -0.0864 -0.3377 -0.4891
 1157UNK    F0710412  26.023   1.312   7.864 -0.4554  0.3616  0.1060
 1157UNK    H0810413  26.181   1.110   7.735 -0.3991  0.8375 -0.1005
 1158UNK    F0010414  27.231   2.987   4.452  0.2419  0.3845  0.0837
 1158UNK    C0110415  27.151   2.885   4.477  0.0159 -1.0046  0.3475
 1158UNK    H0210416  27.165   2.859   4.582  1.1468 -2.3436 -0.1112
 1158UNK    C0310417  27.072   2.827   4.393 -1.1145 -0.2382 -0.4020
 1158UNK    C0410418  26.976   2.723   4.444  0.2155  0.1015  0.1915
 1158UNK    F0510419  27.031   2.626   4.513 -0.1619  0.3663  0.2276
 1158UNK    F0610420  26.883   2.783   4.521  0.3697 -0.2916  0.2010
 1158UNK    F0710421  26.919   2.666   4.336 -0.0579 -0.6316  0.1470
 1158UNK    H0810422  27.111   2.798   4.297 -0.1533 -0.4941  0.0571
 1159UNK    F0010423  26.453   2.146   7.836 -0.1548 -0.3368  0.1614
 1159UNK    C0110424  26.505   2.250   7.770  0.1746  0.3257  0.2230
 1159UNK    H0210425  26.480   2.268   7.665  0.8948 -0.3019 -0.0598
 1159UNK    C0310426  26.582   2.332   7.838 -0.5742 -0.1500 -0.7612
 1159UNK    C0410427  26.718   2.288   7.885  0.0178  0.4003  0.7908
 1159UNK    F0510428  26.742   2.157   7.874 -0.2921 -0.1120 -0.3760
 1159UNK    F0610429  26.820   2.346   7.811 -0.5839 -0.4779  0.4287
 1159UNK    F0710430  26.743   2.311   8.011  0.1728 -0.6049 -0.4653
 1159UNK    H0810431  26.545   2.429   7.867 -0.9339 -0.6787  0.5588
 1160UNK    F0010432  26.867   1.540   6.258  0.0090  0.6428  0.0102
 1160UNK    C0110433  26.853   1.522   6.129  0.4690  0.6280 -0.4586
 1160UNK    H0210434  26.926   1.582   6.074  0.9501  1.3501  0.9418
 1160UNK    C0310435  26.734   1.495   6.079 -0.4573 -0.3174  0.4571
 1160UNK    C0410436  26.701   1.368   6.016  0.0910  0.3204 -0.1298
 1160UNK    F0510437  26.583   1.393   5.953  0.2020 -0.1479  0.3123
 1160UNK    F0610438  26.794   1.327   5.925  0.0230 -0.5628  0.0677
 1160UNK    F0710439  26.674   1.257   6.092  0.3208  0.3283  0.1693
 1160UNK    H0810440  26.663   1.574   6.061 -0.1884 -0.0392  0.5954
 1161UNK    F0010441  25.126   5.172   8.158  0.4019 -0.3295  0.3161
 1161UNK    C0110442  25.081   5.176   8.283  0.1941  0.3666 -0.1734
 1161UNK    H0210443  25.112   5.096   8.350  0.0804  0.5515  0.1014
 1161UNK    C0310444  24.991   5.276   8.306 -1.0835  0.5252  0.3922
 1161UNK    C0410445  24.852   5.232   8.299 -0.1349 -0.3266  0.0983
 1161UNK    F0510446  24.820   5.136   8.390  0.2638  0.5687  0.2906
 1161UNK    F0610447  24.766   5.331   8.345 -0.3583 -0.0875 -0.0492
 1161UNK    F0710448  24.822   5.190   8.170  0.2197 -0.2814 -0.4007
 1161UNK    H0810449  25.014   5.376   8.273  3.0161 -1.1139 -2.0473
 1162UNK    F0010450  23.915   1.719   7.232 -0.7645  0.5180 -0.1420
 1162UNK    C0110451  23.941   1.590   7.253  0.3597  0.1162  0.4596
 1162UNK    H0210452  23.953   1.567   7.359  0.2536  1.8578  0.8636
 1162UNK    C0310453  23.964   1.507   7.150 -0.3520 -0.4742 -0.1877
 1162UNK    C0410454  23.991   1.365   7.180  0.0518 -0.1704 -0.3428
 1162UNK    F0510455  24.075   1.358   7.283  0.4946 -0.2811  0.3355
 1162UNK    F0610456  23.880   1.286   7.202  0.1561  0.2246 -0.4250
 1162UNK    F0710457  24.054   1.304   7.080 -0.0178 -0.2167 -0.0187
 1162UNK    H0810458  23.988   1.544   7.051 -3.4912 -1.0938 -1.2383
 1163UNK    F0010459  27.983   1.872   9.587 -0.1649 -0.3105 -0.0309
 1163UNK    C0110460  28.000   1.906   9.713 -0.8007 -0.6562 -1.0951
 1163UNK    H0210461  27.948   1.841   9.784 -0.4493  0.2328 -0.0172
 1163UNK    C0310462  28.108   1.982   9.736  0.0191 -0.2259  0.8551
 1163UNK    C0410463  28.154   1.996   9.872 -0.8045 -0.2466 -0.9227
 1163UNK    F0510464  28.063   2.047   9.956  0.1626 -0.4824  0.0105
 1163UNK    F0610465  28.175   1.875   9.922  0.3033 -0.3271 -0.0965
 1163UNK    F0710466  28.270   2.065   9.877 -0.1875 -0.1887 -0.0106
 1163UNK    H0810467  28.137   2.058   9.665  1.4346 -0.7075  0.9061
 1164UNK    F0010468  26.324   4.937   7.569 -0.0031  0.6023 -0.3499
 1164UNK    C0110469  26.242   4.863   7.654 -0.3303 -0.1724  0.0499
 1164UNK    H0210470  26.231   4.904   7.755 -1.7863 -0.6414  0.0912
 1164UNK    C0310471  26.172   4.760   7.603 -0.3322 -0.0296 -0.5792
 1164UNK    C0410472  26.058   4.713   7.682 -0.5630  0.2526  0.2690
 1164UNK    F0510473  25.996   4.818   7.736 -0.1638  0.4916  0.0810
 1164UNK    F0610474  25.963   4.648   7.605 -0.2076 -0.4557  0.1586
 1164UNK    F0710475  26.108   4.631   7.774 -0.0586 -0.3607 -0.1151
 1164UNK    H0810476  26.214   4.701   7.523  0.4069 -1.2516  0.6877
 1165UNK    F0010477  27.258   4.173   6.779 -0.1034  0.1630  0.3487
 1165UNK    C0110478  27.169   4.258   6.722  0.0646  0.5462 -0.2829
 1165UNK    H0210479  27.175   4.237   6.616  0.6304 -1.0944  0.0543
 1165UNK    C0310480  27.088   4.342   6.787  1.1943 -0.0341  0.5314
 1165UNK    C0410481  26.987   4.425   6.718 -0.1668 -0.5129 -0.0909
 1165UNK    F0510482  26.907   4.486   6.813 -0.1163  0.4587  0.4608
 1165UNK    F0610483  27.053   4.516   6.638 -0.4051  0.0834  0.2940
 1165UNK    F0710484  26.904   4.354   6.637 -0.0293  0.4718 -0.0119
 1165UNK    H0810485  27.103   4.360   6.892 -2.0091  0.3028  0.9704
 1166UNK    F0010486  24.598   0.341   5.299  0.0562  0.2497 -0.3144
 1166UNK    C0110487  24.553   0.469   5.321 -0.0309 -0.7534 -0.2060
 1166UNK    H0210488  24.485   0.475   5.406  0.6914  2.0052  0.2106
 1166UNK    C0310489  24.626   0.571   5.267 -0.6132 -0.1820 -0.4337
 1166UNK    C0410490  24.775   0.567   5.263  0.5486 -0.0931 -0.1346
 1166UNK    F0510491  24.831   0.507   5.156  0.1765 -0.6330  0.1675
 1166UNK    F0610492  24.825   0.695   5.268 -0.3083 -0.2987 -0.4054
 1166UNK    F0710493  24.833   0.518   5.378 -0.4060 -0.0433  0.2104
 1166UNK    H0810494  24.570   0.640   5.206 -0.7102  0.4960  0.4157
 1167UNK    F0010495  29.523   2.438   7.717  0.0180 -0.6581 -0.1100
 1167UNK    C0110496  29.407   2.484   7.675 -0.2514  0.5167  0.1750
 1167UNK    H0210497  29.423   2.582   7.630  4.4679  0.5763  1.6772
 1167UNK    C0310498  29.291   2.437   7.719 -0.4887  0.2059  0.0665
 1167UNK    C0410499  29.159   2.446   7.669  0.3721  0.5168  0.6082
 1167UNK    F0510500  29.121   2.561   7.607  0.1071  0.1982 -0.3495
 1167UNK    F0610501  29.150   2.365   7.558 -0.0508 -0.1569  0.4472
 1167UNK    F0710502  29.063   2.398   7.753  0.2484 -0.3118 -0.0623
 1167UNK    H0810503  29.293   2.347   7.779  2.2011  0.0687 -0.1714
 1168UNK    F0010504  25.423   5.009   5.982 -0.3190 -0.1592  0.1743
 1168UNK    C0110505  25.438   5.110   5.891  0.3788  1.0196  0.2775
 1168UNK    H0210506  25.463   5.070   5.793  0.2500 -0.9410  1.0227
 1168UNK    C0310507  25.412   5.236   5.927  0.0961 -0.7733 -0.4985
 1168UNK    C0410508  25.285   5.268   5.980  0.7895  0.8001  0.0839
 1168UNK    F0510509  25.178   5.227   5.915 -0.0553 -0.0248  0.2395
 1168UNK    F0610510  25.264   5.231   6.108  0.3530 -0.2858  0.3148
 1168UNK    F0710511  25.263   5.400   5.988 -0.1900 -0.4218 -0.3583
 1168UNK    H0810512  25.432   5.311   5.851 -0.7742  0.5057  0.5163
 1169UNK    F0010513  27.756   3.179   9.208 -0.1852  0.2457  0.1236
 1169UNK    C0110514  27.814   3.064   9.187  0.4158  0.2572  0.0667
 1169UNK    H0210515  27.877   3.054   9.099  0.0904 -0.8924 -0.0443
 1169UNK    C0310516  27.774   2.968   9.275  0.0434 -0.6578  0.2245
 1169UNK    C0410517  27.644   2.899   9.255  0.8546  0.5136 -0.8351
 1169UNK    F0510518  27.558   2.946   9.161  0.3080  0.6150  0.3856
 1169UNK    F0610519  27.656   2.761   9.233  0.2481  0.2259  0.1555
 1169UNK    F0710520  27.561   2.911   9.366 -0.4217 -0.1636  0.7444
 1169UNK    H0810521  27.842   2.919   9.342  1.5385  1.0747  0.0189
 1170UNK    F0010522  24.720   1.634   7.610  0.4128  0.3110  0.2576
 1170UNK    C0110523  24.682   1.621   7.484  0.5201  0.4246 -0.0267
 1170UNK    H0210524  24.623   1.707   7.454 -0.5146 -0.8806 -1.7988
 1170UNK    C0310525  24.768   1.554   7.408 -0.3350 -0.2177  0.9124
 1170UNK    C0410526  24.778   1.408   7.401 -0.5144 -0.3825 -0.7242
 1170UNK    F0510527  24.786   1.360   7.531  0.0609  0.0065  0.2870
 1170UNK    F0610528  24.682   1.352   7.327 -0.3462  0.3362 -0.3824
 1170UNK    F0710529  24.901   1.389   7.342  0.0939 -0.3862 -0.2129
 1170UNK    H0810530  24.794   1.589   7.310 -1.2796 -1.6260  0.1363
 1171UNK    F0010531  28.860   2.365   7.011 -0.0427  0.1065  0.3823
 1171UNK    C0110532  28.848   2.434   7.123 -0.4277 -0.1850 -0.6606
 1171UNK    H0210533  28.939   2.443   7.181 -0.0633 -1.4823 -1.0104
 1171UNK    C0310534  28.726   2.475   7.163 -0.0499  0.0682 -0.0092
 1171UNK    C0410535  28.714   2.600   7.244 -0.6185 -0.0352 -0.2934
 1171UNK    F0510536  28.696   2.711   7.176 -0.0551 -0.0640  0.1936
 1171UNK    F0610537  28.617   2.570   7.329  0.2146 -0.3822 -0.2816
 1171UNK    F0710538  28.821   2.631   7.332  0.2458  0.4795  0.2253
 1171UNK    H0810539  28.634   2.424   7.137  1.1953 -1.4963 -1.4516
 1172UNK    F0010540  26.097   1.474   6.857  0.3001  0.2469  0.0986
 1172UNK    C0110541  25.976   1.498   6.908 -0.0163  0.0646 -0.3830
 1172UNK    H0210542  25.984   1.580   6.979 -0.8268 -0.7432  0.6454
 1172UNK    C0310543  25.878   1.410   6.910 -0.2385  0.2933 -0.2856
 1172UNK    C0410544  25.742   1.451   6.913 -0.2333  0.4057  0.5166
 1172UNK    F0510545  25.708   1.525   6.806  0.0473  0.7343 -0.3372
 1172UNK    F0610546  25.649   1.354   6.902 -0.6527 -0.7551  0.2057
 1172UNK    F0710547  25.702   1.521   7.018 -0.4843  0.1762 -0.2327
 1172UNK    H0810548  25.884   1.305   6.934 -1.4473 -0.1142 -1.6713
 1173UNK    F0010549  29.098   3.514   7.466  0.2666  0.2628  0.8035
 1173UNK    C0110550  29.019   3.586   7.382 -0.0742 -0.6836 -0.0804
 1173UNK    H0210551  28.968   3.509   7.323 -1.3697  1.1861 -1.4708
 1173UNK    C0310552  28.999   3.716   7.395  0.0602  0.0413  0.3299
 1173UNK    C0410553  28.887   3.789   7.328 -0.0167  0.1710 -0.0306
 1173UNK    F0510554  28.914   3.916   7.290 -0.0693 -0.2927 -0.0024
 1173UNK    F0610555  28.840   3.730   7.216  0.1913 -0.2356 -0.0932
 1173UNK    F0710556  28.786   3.805   7.423 -0.0032 -0.2096 -0.3753
 1173UNK    H0810557  29.047   3.774   7.472  1.1882 -0.1904 -0.1873
 1174UNK    F0010558  26.743   0.348   4.769  0.2113  0.4404  0.4076
 1174UNK    C0110559  26.850   0.269   4.762 -0.1734 -0.4259  0.4104
 1174UNK    H0210560  26.863   0.247   4.656  0.4576  0.2867  0.3302
 1174UNK    C0310561  26.906   0.215   4.871 -0.4974  0.1066 -0.2228
 1174UNK    C0410562  27.050   0.206   4.895 -0.2393  0.2792  0.2357
 1174UNK    F0510563  27.121   0.254   4.791  0.2035 -0.5924  0.2549
 1174UNK    F0610564  27.098   0.268   5.004 -0.6023  0.2079  0.3653
 1174UNK    F0710565  27.089   0.077   4.903  0.3997 -0.1289  0.0544
 1174UNK    H0810566  26.842   0.164   4.942 -1.2281  1.8408  0.3985
 1175UNK    F0010567  26.747   2.156   8.338 -0.5729 -0.3820  0.5125
 1175UNK    C0110568  26.745   2.184   8.472  0.5082  0.2570 -0.2207
 1175UNK    H0210569  26.834   2.142   8.519  0.7706  0.6083 -0.3962
 1175UNK    C0310570  26.686   2.301   8.515  0.2187 -0.0845 -0.2964
 1175UNK    C0410571  26.674   2.342   8.658  0.3091 -0.0578 -0.4069
 1175UNK    F0510572  26.797   2.379   8.702 -0.4208 -0.2210 -0.7021
 1175UNK    F0610573  26.581   2.435   8.665  0.0809  0.3357 -0.7712
 1175UNK    F0710574  26.625   2.235   8.724 -0.0583 -0.3799 -0.1612
 1175UNK    H0810575  26.676   2.380   8.442  0.1931 -0.7700 -1.0383
 1176UNK    F0010576  27.840   0.556   8.835 -0.0024 -0.1863 -0.3709
 1176UNK    C0110577  27.890   0.470   8.927  0.4951  0.4419 -0.7461
 1176UNK    H0210578  27.845   0.375   8.899 -0.7236  0.8256 -0.1186
 1176UNK    C0310579  27.938   0.515   9.045  0.6063 -0.2797  0.7402
 1176UNK    C0410580  28.027   0.431   9.123 -0.3997  0.8443  0.1323
 1176UNK    F0510581  28.155   0.426   9.079 -0.7278 -0.1595  0.1111
 1176UNK    F0610582  28.000   0.477   9.250  0.1505  0.6892  0.4580
 1176UNK    F0710583  27.994   0.295   9.126  0.1691 -0.1034  0.1093
 1176UNK    H0810584  27.980   0.615   9.048 -1.2973  0.5094  4.4282
 1177UNK    F0010585  28.991   2.779   5.924 -0.4583 -0.7778 -0.4159
 1177UNK    C0110586  29.032   2.849   6.030 -0.0338 -0.2764  0.2273
 1177UNK    H0210587  29.108   2.924   6.007 -0.3834 -0.5252 -1.8020
 1177UNK    C0310588  29.028   2.785   6.145 -0.1603 -0.0199  0.1291
 1177UNK    C0410589  29.124   2.695   6.191 -0.2577  0.2514  0.5653
 1177UNK    F0510590  29.071   2.571   6.171 -0.1500 -0.7174  0.1788
 1177UNK    F0610591  29.249   2.701   6.132  0.1191  0.3446 -0.3337
 1177UNK    F0710592  29.133   2.709   6.326  0.1422 -0.3087  0.2335
 1177UNK    H0810593  28.974   2.837   6.222 -0.1985 -0.2104  0.2311
 1178UNK    F0010594  28.874   1.118   8.488  0.2805 -0.0150 -0.0797
 1178UNK    C0110595  28.765   1.097   8.562  0.4180  0.2410  0.0861
 1178UNK    H0210596  28.790   1.056   8.660 -1.0754  0.6101  0.6332
 1178UNK    C0310597  28.643   1.124   8.517  0.1506 -0.0323 -0.2204
 1178UNK    C0410598  28.607   1.247   8.448  0.0778  0.0384 -0.0286
 1178UNK    F0510599  28.675   1.355   8.496 -0.1754  0.4425 -0.3475
 1178UNK    F0610600  28.610   1.231   8.314 -0.2004 -0.2319  0.2555
 1178UNK    F0710601  28.481   1.280   8.472  0.3180 -0.1157 -0.2549
 1178UNK    H0810602  28.581   1.040   8.488  0.5244 -0.4916  0.2931
 1179UNK    F0010603  29.584   0.576   8.445 -0.3555  0.2536 -0.6765
 1179UNK    C0110604  29.709   0.574   8.494 -0.1752 -0.3316  0.1223
 1179UNK    H0210605  29.736   0.670   8.537  1.3270 -1.2880  1.3602
 1179UNK    C0310606  29.799   0.483   8.463 -0.2764  0.2454  0.1376
 1179UNK    C0410607  29.776   0.338   8.453 -0.2767  0.3204 -0.1119
 1179UNK    F0510608  29.888   0.265   8.432  0.0680 -0.7392  0.0023
 1179UNK    F0610609  29.727   0.289   8.573  0.1278  0.5070 -0.1365
 1179UNK    F0710610  29.682   0.306   8.358  0.2790  0.0219 -0.6721
 1179UNK    H0810611  29.899   0.515   8.441 -0.7908  0.9584 -1.2169
 1180UNK    F0010612  27.969   2.383   8.948 -0.7767  0.0910  0.3544
 1180UNK    C0110613  28.025   2.263   8.975 -0.1094 -0.4096 -0.2461
 1180UNK    H0210614  28.117   2.265   8.916  0.0533 -0.8844 -0.0005
 1180UNK    C0310615  28.015   2.225   9.097 -0.0843  0.1026 -0.9454
 1180UNK    C0410616  28.132   2.179   9.177 -1.0354  0.6251  0.0313
 1180UNK    F0510617  28.091   2.089   9.262 -0.7763 -0.3309  0.2007
 1180UNK    F0610618  28.225   2.114   9.102 -0.0232  0.1358 -0.2178
 1180UNK    F0710619  28.196   2.281   9.238 -0.1458  0.3563  0.2304
 1180UNK    H0810620  27.921   2.180   9.126  0.4273  1.3096  2.8978
 1181UNK    F0010621  28.127   1.397   5.810  0.3848  0.1476 -0.5383
 1181UNK    C0110622  28.225   1.405   5.720 -0.0987 -0.0312  0.1409
 1181UNK    H0210623  28.205   1.483   5.646  1.9837  0.0675 -0.3742
 1181UNK    C0310624  28.339   1.336   5.737  0.3580  0.7732  0.4260
 1181UNK    C0410625  28.333   1.188   5.733  0.2316 -0.2826 -0.6128
 1181UNK    F0510626  28.211   1.135   5.760 -0.0765 -0.1653 -0.3435
 1181UNK    F0610627  28.361   1.151   5.611  0.2239  0.1804  0.5202
 1181UNK    F0710628  28.434   1.138   5.810 -0.5417 -0.0867 -0.1026
 1181UNK    H0810629  28.439   1.375   5.746  0.6039 -0.1756  1.9978
 1182UNK    F0010630  26.722   4.073   6.838 -0.3810  0.9899  0.6816
 1182UNK    C0110631  26.843   4.111   6.890  0.3092  0.5667  0.2562
 1182UNK    H0210632  26.841   4.220   6.901 -0.3464  0.8064 -1.8574
 1182UNK    C0310633  26.935   4.027   6.938 -0.2631  0.5673 -0.7881
 1182UNK    C0410634  26.878   3.914   7.017  0.2652 -0.6021 -0.1276
 1182UNK    F0510635  26.960   3.852   7.096  0.1860 -0.0777  0.3606
 1182UNK    F0610636  26.767   3.940   7.088 -0.1290 -0.2719 -0.0599
 1182UNK    F0710637  26.821   3.821   6.938 -0.2699 -0.3758 -0.5510
 1182UNK    H0810638  27.031   4.004   6.895  0.8199  1.2245  1.1901
 1183UNK    F0010639  26.648   2.968   9.315  0.1659 -0.0794  0.1553
 1183UNK    C0110640  26.611   2.839   9.292 -0.5865  0.2429 -0.5400
 1183UNK    H0210641  26.648   2.790   9.202  1.3452  1.0359 -0.2028
 1183UNK    C0310642  26.516   2.786   9.368  0.7760  0.0071  0.4261
 1183UNK    C0410643  26.378   2.795   9.318 -0.1259  1.1511 -0.1286
 1183UNK    F0510644  26.324   2.912   9.299  0.3935 -0.4694 -0.2688
 1183UNK    F0610645  26.368   2.734   9.197 -0.4615  0.3591 -0.2362
 1183UNK    F0710646  26.299   2.740   9.410 -0.5909 -0.1536 -0.2936
 1183UNK    H0810647  26.532   2.711   9.445  1.2583  0.4735  0.7811
 1184UNK    F0010648  25.606   2.183   9.580 -0.2569 -0.5750 -0.6738
 1184UNK    C0110649  25.510   2.123   9.641 -0.3241  0.0362 -0.0153
 1184UNK    H0210650  25.505   2.015   9.631  2.0135 -0.1840  0.9351
 1184UNK    C0310651  25.439   2.213   9.719 -0.0565  0.5518 -0.6064
 1184UNK    C0410652  25.328   2.156   9.805  0.4802 -0.0490 -0.5218
 1184UNK    F0510653  25.261   2.064   9.731 -0.3647  0.3733 -0.4837
 1184UNK    F0610654  25.371   2.103   9.924  0.0924  0.1570  0.1241
 1184UNK    F0710655  25.235   2.256   9.831 -0.3347 -0.4797  0.0947
 1184UNK    H0810656  25.409   2.306   9.673 -2.7153 -0.3833 -0.8809
 1185UNK    F0010657  25.458   1.431   8.282 -0.7354 -0.5835 -0.1134
 1185UNK    C0110658  25.379   1.501   8.205 -0.0830  0.0264  0.4719
 1185UNK    H0210659  25.326   1.575   8.265 -2.5057 -0.9801 -0.3929
 1185UNK    C0310660  25.333   1.454   8.087 -0.6544  0.9491  0.0084
 1185UNK    C0410661  25.240   1.345   8.067  0.5711  0.0012 -0.3713
 1185UNK    F0510662  25.111   1.374   8.099  0.4390 -0.4062  0.1429
 1185UNK    F0610663  25.249   1.306   7.936  0.2822  0.2401 -0.3260
 1185UNK    F0710664  25.267   1.222   8.129 -0.0031  0.2307 -0.9514
 1185UNK    H0810665  25.375   1.496   7.996 -2.1487 -0.3264 -1.2970
 1186UNK    F0010666  24.724   4.196   8.629 -0.1050  0.6500  0.1614
 1186UNK    C0110667  24.761   4.069   8.597  0.1588 -0.2860 -0.4056
 1186UNK    H0210668  24.857   4.036   8.635 -0.5964 -0.6517  1.2317
 1186UNK    C0310669  24.676   3.983   8.543  0.4225  0.7793  0.2034
 1186UNK    C0410670  24.699   3.837   8.536  0.0422  1.1193  0.9164
 1186UNK    F0510671  24.676   3.787   8.663 -0.1595  0.1333 -0.3172
 1186UNK    F0610672  24.615   3.769   8.456 -0.0519 -0.4458  0.2751
 1186UNK    F0710673  24.828   3.819   8.491  0.2553  0.0507 -0.0368
 1186UNK    H0810674  24.614   4.027   8.466  0.3533 -0.2838 -0.3562
 1187UNK    F0010675  25.705   2.552   5.430 -0.2881  0.1948  0.0993
 1187UNK    C0110676  25.635   2.466   5.508 -0.2571  0.2043 -0.5354
 1187UNK    H0210677  25.664   2.362   5.492  0.0564  0.2923 -0.5573
 1187UNK    C0310678  25.509   2.507   5.524 -0.5532  0.2586 -0.0546
 1187UNK    C0410679  25.428   2.444   5.627  0.2477 -0.2517  0.3739
 1187UNK    F0510680  25.428   2.309   5.604 -0.5434 -0.5626  0.5147
 1187UNK    F0610681  25.459   2.461   5.759 -0.0661 -0.3885  0.1609
 1187UNK    F0710682  25.301   2.482   5.628 -0.3186  0.1516 -0.3916
 1187UNK    H0810683  25.452   2.559   5.448 -0.2389 -0.2892 -0.6806
 1188UNK    F0010684  25.788   4.145   6.896  0.1151  0.4672  0.0717
 1188UNK    C0110685  25.858   4.127   7.010 -0.1417 -0.2387 -0.6277
 1188UNK    H0210686  25.959   4.164   7.001 -0.7037  1.3353 -0.5526
 1188UNK    C0310687  25.788   4.108   7.124 -0.5196 -0.7041  0.5007
 1188UNK    C0410688  25.688   4.199   7.180  0.2469  0.4996 -0.6385
 1188UNK    F0510689  25.697   4.324   7.145 -0.2764 -0.2194  0.1478
 1188UNK    F0610690  25.563   4.162   7.145 -0.2575 -0.1703 -0.1584
 1188UNK    F0710691  25.695   4.190   7.314 -0.2333  0.1754 -0.2674
 1188UNK    H0810692  25.797   4.019   7.186  0.9568  0.5455  2.1247
 1189UNK    F0010693  27.451   0.371   6.054  0.0088  0.0573 -0.5321
 1189UNK    C0110694  27.380   0.481   6.030 -0.5903 -0.1718  0.3371
 1189UNK    H0210695  27.378   0.508   5.924 -0.3417  0.9425  0.6163
 1189UNK    C0310696  27.310   0.536   6.132  0.2792 -0.3170  0.5990
 1189UNK    C0410697  27.355   0.659   6.204 -0.2515 -0.3964  0.3518
 1189UNK    F0510698  27.290   0.766   6.159  0.1862 -0.0844 -0.3727
 1189UNK    F0610699  27.320   0.657   6.337 -0.6303 -0.4766 -0.3804
 1189UNK    F0710700  27.487   0.685   6.191 -0.2609 -0.2983  0.6712
 1189UNK    H0810701  27.206   0.511   6.139 -0.3820  1.2511 -2.7178
 1190UNK    F0010702  25.703   1.813  10.680  0.2366  0.0002  0.1681
 1190UNK    C0110703  25.765   1.809  10.802 -0.0271  0.3015  0.6130
 1190UNK    H0210704  25.756   1.711  10.848 -0.6162 -0.0332 -0.2158
 1190UNK    C0310705  25.857   1.903  10.834 -0.0163 -0.8734 -0.7977
 1190UNK    C0410706  25.946   1.886  10.950 -0.0232 -0.0713  0.0929
 1190UNK    F0510707  25.885   1.820  11.050 -0.1365 -0.1737 -0.3922
 1190UNK    F0610708  26.039   1.799  10.911  0.1872 -0.1038  0.4372
 1190UNK    F0710709  26.011   1.999  10.982 -0.1110 -0.2557 -0.2654
 1190UNK    H0810710  25.887   1.983  10.768  0.9443 -1.8829 -1.6085
 1191UNK    F0010711  26.356   0.388   6.934  0.0783  0.0102 -0.1393
 1191UNK    C0110712  26.327   0.331   7.051 -0.1731 -0.0487 -0.0025
 1191UNK    H0210713  26.232   0.278   7.051 -0.4506  0.3525  2.6020
 1191UNK    C0310714  26.413   0.359   7.155 -0.3932 -0.1763  0.3974
 1191UNK    C0410715  26.434   0.278   7.266 -0.7503  0.5558  0.3393
 1191UNK    F0510716  26.478   0.354   7.367  0.3334 -0.3994  0.0228
 1191UNK    F0610717  26.322   0.210   7.305 -0.0424 -0.2349 -0.2531
 1191UNK    F0710718  26.523   0.177   7.243  0.4337 -0.1579 -0.0154
 1191UNK    H0810719  26.476   0.447   7.151  2.7704 -2.4092 -1.4924
 1192UNK    F0010720  25.868   4.695   7.935  0.3358  0.0088  0.1534
 1192UNK    C0110721  25.737   4.692   7.958  0.0629 -1.1873 -0.0010
 1192UNK    H0210722  25.682   4.758   7.890 -1.1758  2.1671  4.0328
 1192UNK    C0310723  25.684   4.586   8.019  0.3950  0.1380 -0.0343
 1192UNK    C0410724  25.681   4.577   8.162 -0.2425 -0.2188  0.0651
 1192UNK    F0510725  25.650   4.453   8.206  0.0342 -0.2533 -0.0501
 1192UNK    F0610726  25.802   4.603   8.223 -0.0979  0.0630  0.4564
 1192UNK    F0710727  25.585   4.658   8.217 -0.0077  0.4479  0.2493
 1192UNK    H0810728  25.644   4.503   7.962  1.4053 -0.4669  0.1323
 1193UNK    F0010729  26.751   5.090   7.127 -0.7374 -0.6398 -0.0772
 1193UNK    C0110730  26.626   5.133   7.148  0.2376  0.2994  0.1482
 1193UNK    H0210731  26.576   5.063   7.215  0.2034  0.2739  0.0940
 1193UNK    C0310732  26.565   5.218   7.060  0.7307  0.6704  0.1501
 1193UNK    C0410733  26.482   5.163   6.956  0.4883  0.3526 -0.0684
 1193UNK    F0510734  26.554   5.091   6.865  0.2731  0.1304 -0.4682
 1193UNK    F0610735  26.384   5.089   7.009 -0.2185  0.2172 -0.0243
 1193UNK    F0710736  26.421   5.254   6.879 -0.2298 -0.3171  0.1947
 1193UNK    H0810737  26.640   5.283   7.016  1.5332  0.0955  0.6583
 1194UNK    F0010738  29.661   1.371   5.594  0.3060 -0.0611 -0.3500
 1194UNK    C0110739  29.539   1.414   5.628 -0.3308  0.4030  0.0795
 1194UNK    H0210740  29.465   1.340   5.598  0.9532 -0.4088 -1.1513
 1194UNK    C0310741  29.537   1.528   5.697 -0.3114  0.1652 -0.4419
 1194UNK    C0410742  29.411   1.592   5.743 -0.8848  0.5547 -0.2714
 1194UNK    F0510743  29.379   1.522   5.858  0.1119  0.1819  0.0271
 1194UNK    F0610744  29.440   1.715   5.775 -0.0135 -0.2959  0.4956
 1194UNK    F0710745  29.312   1.588   5.649  0.6270  0.9007  0.3053
 1194UNK    H0810746  29.629   1.574   5.728 -0.1688  1.3434 -2.4900
 1195UNK    F0010747  25.456   2.925   9.629 -0.5587 -0.1006 -0.1952
 1195UNK    C0110748  25.500   3.047   9.580 -0.2304  0.1409  0.5860
 1195UNK    H0210749  25.488   3.129   9.650  0.9801 -0.7480  1.8674
 1195UNK    C0310750  25.580   3.061   9.475  0.4502 -0.0434 -0.0774
 1195UNK    C0410751  25.714   2.996   9.456 -1.0051 -0.0595  0.2012
 1195UNK    F0510752  25.693   2.866   9.449  0.0480  0.1506  0.3086
 1195UNK    F0610753  25.768   3.034   9.339  0.0742  0.5218 -0.4941
 1195UNK    F0710754  25.793   3.020   9.561 -0.1474  0.1233 -1.0585
 1195UNK    H0810755  25.526   3.090   9.386 -0.2303 -1.5441 -0.1687
 1196UNK    F0010756  25.883   2.937  10.105 -0.9002 -0.0075 -0.8159
 1196UNK    C0110757  25.904   3.035  10.201 -0.1972 -0.0434  0.8232
 1196UNK    H0210758  25.897   3.135  10.158 -0.4603 -0.1638  0.5861
 1196UNK    C0310759  25.887   2.994  10.324  0.1804  0.0035 -0.1268
 1196UNK    C0410760  25.894   3.087  10.433 -0.5377  0.4030  0.2336
 1196UNK    F0510761  25.802   3.189  10.425  0.3904  0.1483 -0.0630
 1196UNK    F0610762  25.891   3.030  10.557 -0.3356  0.7762 -0.6889
 1196UNK    F0710763  26.008   3.158  10.438 -0.6174 -0.2382 -0.3738
 1196UNK    H0810764  25.815   2.916  10.343  1.6826 -1.2810  0.3987
 1197UNK    F0010765  28.236   5.086   6.429 -0.6074  0.3952 -0.1129
 1197UNK    C0110766  28.198   5.049   6.305 -0.4701  1.3579 -0.2439
 1197UNK    H0210767  28.110   4.988   6.326  0.6644 -0.1866  0.1755
 1197UNK    C0310768  28.263   5.080   6.195 -0.2981 -0.0093  0.0644
 1197UNK    C0410769  28.211   5.067   6.057  0.3617 -0.4560 -0.5348
 1197UNK    F0510770  28.314   5.011   5.985  0.4263  0.1323  0.0577
 1197UNK    F0610771  28.098   4.988   6.045 -0.7136  0.2242  0.0730
 1197UNK    F0710772  28.186   5.193   5.997  0.3493 -0.9355  0.1167
 1197UNK    H0810773  28.369   5.063   6.194 -0.4737 -1.1040 -0.0918
 1198UNK    F0010774  28.564   0.722   5.727  0.1963 -0.7047 -0.0991
 1198UNK    C0110775  28.439   0.677   5.739 -0.2807  0.1858 -0.0586
 1198UNK    H0210776  28.429   0.571   5.720 -1.3597  0.4682 -1.1013
 1198UNK    C0310777  28.346   0.765   5.782  0.5188 -0.7838 -1.2489
 1198UNK    C0410778  28.211   0.720   5.820  0.1805 -0.5584  0.0507
 1198UNK    F0510779  28.128   0.827   5.828 -1.0103 -0.1103 -0.1033
 1198UNK    F0610780  28.150   0.640   5.728  0.2183 -0.0490  0.3458
 1198UNK    F0710781  28.207   0.630   5.922 -0.1682 -0.2722 -0.3046
 1198UNK    H0810782  28.332   0.868   5.753  1.0178  0.7196  3.3221
 1199UNK    F0010783  29.840   2.145   9.618  0.0914 -0.0623  0.8824
 1199UNK    C0110784  29.746   2.219   9.554 -0.5101 -0.0428  0.3054
 1199UNK    H0210785  29.765   2.218   9.447 -0.7125  3.0580  0.2048
 1199UNK    C0310786  29.637   2.253   9.616 -0.4119 -0.4137  0.3402
 1199UNK    C0410787  29.514   2.277   9.541  0.4459 -0.9624 -0.0851
 1199UNK    F0510788  29.412   2.335   9.612 -0.0536  0.6995 -0.6374
 1199UNK    F0610789  29.541   2.376   9.453  0.5065  0.2280 -0.4673
 1199UNK    F0710790  29.462   2.172   9.475  0.0489 -0.5555 -0.2413
 1199UNK    H0810791  29.637   2.252   9.724  0.7037  2.7002  0.4303
 1200UNK    F0010792  29.152   3.437   7.905  0.2343 -0.3231 -0.2753
 1200UNK    C0110793  29.029   3.426   7.865  0.8622  0.8431  0.7766
 1200UNK    H0210794  28.959   3.453   7.945  0.5669 -0.9492  1.1390
 1200UNK    C0310795  29.000   3.410   7.740  0.3835  0.1249  0.5369
 1200UNK    C0410796  28.878   3.460   7.683  0.0138 -0.3343  0.1225
 1200UNK    F0510797  28.782   3.438   7.776  0.5987 -1.0537 -0.2481
 1200UNK    F0610798  28.885   3.596   7.661  0.0903 -0.3831 -0.0161
 1200UNK    F0710799  28.844   3.382   7.581  0.5034 -0.0695  0.0255
 1200UNK    H0810800  29.083   3.406   7.672  0.6647 -1.3378  0.9547
 1201UNK    F0010801  26.193   1.466   7.346 -0.2123 -0.5623  0.3430
 1201UNK    C0110802  26.195   1.567   7.430  0.2433 -0.5042  0.1286
 1201UNK    H0210803  26.171   1.540   7.533 -2.4721 -1.5300 -0.7246
 1201UNK    C0310804  26.284   1.659   7.390  0.3324 -0.2772  0.9163
 1201UNK    C0410805  26.231   1.788   7.334 -0.7938 -0.2561  0.6218
 1201UNK    F0510806  26.190   1.864   7.435 -0.2662 -0.3335  0.0319
 1201UNK    F0610807  26.317   1.865   7.265  0.1103  0.7348 -0.0123
 1201UNK    F0710808  26.131   1.761   7.249 -0.4132  0.1133  0.0434
 1201UNK    H0810809  26.371   1.622   7.339  0.5180  1.9539 -0.4264
 1202UNK    F0010810  30.171   4.698   5.984 -0.0388 -0.1187 -0.6553
 1202UNK    C0110811  30.232   4.774   6.074 -0.5356  0.1018 -0.0261
 1202UNK    H0210812  30.208   4.879   6.057  0.1317  0.4735  1.2108
 1202UNK    C0310813  30.261   4.731   6.201  0.0485 -1.0749 -0.2351
 1202UNK    C0410814  30.382   4.663   6.255 -0.3159  0.2683 -0.7145
 1202UNK    F0510815  30.440   4.573   6.171 -0.0921  0.2376  0.1908
 1202UNK    F0610816  30.470   4.756   6.305  0.1053  0.9261 -0.3848
 1202UNK    F0710817  30.344   4.593   6.363 -0.3356 -0.1225 -0.3134
 1202UNK    H0810818  30.211   4.784   6.281 -0.7269 -1.6396 -0.3392
 1203UNK    F0010819  25.599   0.946   6.385 -0.1006  0.1727 -0.3686
 1203UNK    C0110820  25.664   0.960   6.498  0.1579 -0.3188  0.2949
 1203UNK    H0210821  25.769   0.933   6.496 -0.0429 -1.0444 -0.4350
 1203UNK    C0310822  25.592   0.963   6.607 -0.9964 -0.1393 -0.0560
 1203UNK    C0410823  25.638   1.009   6.737  0.2375  0.5455 -0.1632
 1203UNK    F0510824  25.639   1.140   6.733 -0.0875  0.2174 -0.1852
 1203UNK    F0610825  25.565   0.961   6.841 -1.0506 -0.0770 -0.8309
 1203UNK    F0710826  25.770   0.984   6.770 -0.2408 -0.5174  0.1148
 1203UNK    H0810827  25.485   0.957   6.596 -1.0025  0.1548 -0.1573
 1204UNK    F0010828  24.164   4.990   9.465  0.6205 -0.0797  0.0608
 1204UNK    C0110829  24.222   4.873   9.443 -0.4709 -0.1385  0.3009
 1204UNK    H0210830  24.218   4.844   9.338 -0.6333 -0.8044  0.4851
 1204UNK    C0310831  24.270   4.804   9.543 -0.0068 -0.4947  0.4123
 1204UNK    C0410832  24.309   4.663   9.529 -0.0094  0.1092  0.3825
 1204UNK    F0510833  24.334   4.609   9.653  0.0411  0.0145  0.7315
 1204UNK    F0610834  24.202   4.595   9.489  0.0057  0.3921  0.3348
 1204UNK    F0710835  24.416   4.648   9.444  0.3074  0.3234  0.6647
 1204UNK    H0810836  24.335   4.853   9.613 -0.7813 -1.4479  1.8133
 1205UNK    F0010837  26.465   4.519   3.346 -0.3933  0.0602  0.4205
 1205UNK    C0110838  26.460   4.649   3.389 -0.2869 -0.6024 -0.6524
 1205UNK    H0210839  26.501   4.725   3.323 -1.7146  1.2023  0.5104
 1205UNK    C0310840  26.466   4.659   3.522 -0.6155 -0.5724  0.3289
 1205UNK    C0410841  26.398   4.771   3.583 -0.1489  0.1146 -1.0791
 1205UNK    F0510842  26.270   4.728   3.598  0.5156 -0.4592  0.1445
 1205UNK    F0610843  26.468   4.794   3.696  0.3549  0.6414  0.1662
 1205UNK    F0710844  26.390   4.890   3.513  0.1356  0.2895  0.4827
 1205UNK    H0810845  26.503   4.587   3.594 -1.4121 -0.3867  0.9331
 1206UNK    F0010846  29.109   4.050   8.320 -0.4539 -0.0246  0.0589
 1206UNK    C0110847  29.100   4.011   8.447 -0.0345 -0.4199  0.3486
 1206UNK    H0210848  29.077   4.098   8.509 -2.1119 -0.1477 -0.7694
 1206UNK    C0310849  29.139   3.889   8.483  0.5428 -1.3188 -0.2216
 1206UNK    C0410850  29.100   3.814   8.610 -0.4559 -0.2417  0.1362
 1206UNK    F0510851  29.169   3.701   8.618  0.5256  0.1708  0.1895
 1206UNK    F0610852  29.129   3.897   8.722  0.2491  0.1083  0.6634
 1206UNK    F0710853  28.965   3.782   8.606 -0.5932  0.4308 -0.3182
 1206UNK    H0810854  29.212   3.834   8.425 -1.5837 -2.8936 -1.4537
 1207UNK    F0010855  28.892   4.096   7.015  0.4446 -0.6562  0.3147
 1207UNK    C0110856  28.900   4.189   6.916  0.0040 -0.2116 -0.2946
 1207UNK    H0210857  28.806   4.201   6.862 -0.1479 -1.8017 -0.4209
 1207UNK    C0310858  29.020   4.242   6.900  0.5479 -0.3706 -0.6166
 1207UNK    C0410859  29.047   4.382   6.863 -0.3784 -0.3401  0.7610
 1207UNK    F0510860  28.956   4.441   6.783 -0.5673  0.3771  0.1463
 1207UNK    F0610861  29.077   4.466   6.963 -0.6298  0.0307  0.2278
 1207UNK    F0710862  29.169   4.374   6.796  0.0893  0.1481 -0.6203
 1207UNK    H0810863  29.109   4.182   6.906  0.1757 -0.7984  0.6762
 1208UNK    F0010864  27.944   0.345   9.851 -0.0226  0.3210 -0.5479
 1208UNK    C0110865  28.063   0.328   9.911  0.2326 -0.2329  0.6150
 1208UNK    H0210866  28.078   0.220   9.911 -1.8526 -0.5438  1.2431
 1208UNK    C0310867  28.092   0.414  10.006  0.4409  0.1116  0.3493
 1208UNK    C0410868  28.022   0.430  10.129  0.2421 -0.4696  0.6092
 1208UNK    F0510869  27.890   0.459  10.116 -0.1689  0.0996 -0.0499
 1208UNK    F0610870  28.042   0.313  10.200  0.1801  0.2739 -0.2809
 1208UNK    F0710871  28.085   0.534  10.190  0.0464  0.1269 -0.3368
 1208UNK    H0810872  28.171   0.486   9.995 -0.3616  0.9133 -0.3135
 1209UNK    F0010873  27.091   0.997   5.663  0.1034  0.1569  0.1956
 1209UNK    C0110874  27.212   1.045   5.691  0.2085 -0.3852 -0.3469
 1209UNK    H0210875  27.274   0.985   5.758  1.3163 -0.3934 -1.3692
 1209UNK    C0310876  27.261   1.149   5.627  0.6467  0.3352  0.3467
 1209UNK    C0410877  27.295   1.162   5.483  1.2399 -0.4604 -0.5474
 1209UNK    F0510878  27.361   1.275   5.462  0.1783  0.2227  0.2958
 1209UNK    F0610879  27.358   1.056   5.433  0.1497 -0.2932  0.3053
 1209UNK    F0710880  27.171   1.174   5.418 -0.4520 -0.1535 -0.5419
 1209UNK    H0810881  27.312   1.227   5.682  1.1563  0.6580 -0.5723
 1210UNK    F0010882  27.779   3.248   8.289 -0.5581  0.3397  0.0428
 1210UNK    C0110883  27.707   3.139   8.268  0.8548 -0.3889  0.6989
 1210UNK    H0210884  27.703   3.080   8.359 -2.0268 -0.3132  0.6736
 1210UNK    C0310885  27.713   3.094   8.141 -0.2587 -0.2783 -0.2171
 1210UNK    C0410886  27.632   2.978   8.093  0.3925 -0.3047  0.3462
 1210UNK    F0510887  27.599   2.888   8.190 -0.3380  0.5163  0.2680
 1210UNK    F0610888  27.515   3.037   8.041  0.3481 -0.1487  0.3348
 1210UNK    F0710889  27.709   2.918   8.005  0.2378  0.3305  0.2104
 1210UNK    H0810890  27.812   3.086   8.099 -0.6865 -2.0365 -0.9569
 1211UNK    F0010891  24.335   0.104   5.883 -0.1461  0.3570  0.0972
 1211UNK    C0110892  24.356  -0.015   5.825  0.4356  0.2615  0.1440
 1211UNK    H0210893  24.264  -0.075   5.824 -0.3711  1.4964 -1.1973
 1211UNK    C0310894  24.476  -0.047   5.773  0.3996  0.2149  0.1479
 1211UNK    C0410895  24.570  -0.128   5.843 -0.5238  0.3713  0.0231
 1211UNK    F0510896  24.700  -0.078   5.852  0.4915  0.3419 -0.1638
 1211UNK    F0610897  24.540  -0.182   5.961 -0.4761  0.0418 -0.2462
 1211UNK    F0710898  24.595  -0.239   5.759 -0.2128 -0.4283 -0.3183
 1211UNK    H0810899  24.514   0.017   5.694 -0.4237  0.3065 -0.1788
 1212UNK    F0010900  26.452   0.166   5.704  0.5474 -0.3437 -0.1142
 1212UNK    C0110901  26.394   0.229   5.600  0.1234  0.2131 -0.2244
 1212UNK    H0210902  26.348   0.323   5.632  1.2314  1.3714 -1.9785
 1212UNK    C0310903  26.366   0.153   5.494 -0.0088  0.0002  0.0712
 1212UNK    C0410904  26.381   0.194   5.354 -0.5660  0.1497  0.4893
 1212UNK    F0510905  26.507   0.207   5.314 -0.1302  0.3306 -0.4639
 1212UNK    F0610906  26.316   0.108   5.270 -0.0478 -0.1655  0.2522
 1212UNK    F0710907  26.316   0.315   5.316 -0.0321 -0.2322 -0.2062
 1212UNK    H0810908  26.295   0.072   5.506  0.3875 -0.3846 -0.1899
 1213UNK    F0010909  26.172   2.121   4.583 -0.2503  0.1583 -0.0832
 1213UNK    C0110910  26.250   2.192   4.499 -0.3008  0.3944 -0.4989
 1213UNK    H0210911  26.353   2.205   4.531 -0.1882 -2.1138  0.2444
 1213UNK    C0310912  26.190   2.266   4.400 -0.1285 -0.5511  0.1367
 1213UNK    C0410913  26.127   2.398   4.419  0.3429  0.3104 -0.1792
 1213UNK    F0510914  26.052   2.417   4.532  0.0312 -0.0837 -0.5044
 1213UNK    F0610915  26.208   2.502   4.445 -0.2877  0.2360  0.1639
 1213UNK    F0710916  26.052   2.434   4.319  0.1104  0.0002  0.2870
 1213UNK    H0810917  26.164   2.222   4.305  0.2695 -2.3688  0.8604
 1214UNK    F0010918  27.666   2.529   9.507  0.0061  0.3705 -1.4450
 1214UNK    C0110919  27.724   2.409   9.514  0.4579 -0.3960  0.1460
 1214UNK    H0210920  27.770   2.373   9.423  0.4199 -0.2677  0.0759
 1214UNK    C0310921  27.733   2.346   9.631 -0.6501 -0.1622 -0.0301
 1214UNK    C0410922  27.788   2.214   9.657 -0.1840  0.0073 -0.0531
 1214UNK    F0510923  27.705   2.149   9.741 -0.4701 -0.0707 -0.1367
 1214UNK    F0610924  27.800   2.129   9.555  0.3545  0.2936 -0.1378
 1214UNK    F0710925  27.910   2.231   9.713 -0.4010  0.2905 -0.0242
 1214UNK    H0810926  27.720   2.401   9.723 -0.3701  0.2091 -0.2141
 1215UNK    F0010927  28.234   3.142   9.002  0.3034 -0.1197  0.0655
 1215UNK    C0110928  28.216   3.188   9.130 -0.1426  0.0385 -0.1815
 1215UNK    H0210929  28.309   3.227   9.172  0.7214 -1.4916 -0.6149
 1215UNK    C0310930  28.092   3.232   9.162 -0.1167  0.0379  0.3347
 1215UNK    C0410931  28.022   3.340   9.085 -0.1756 -0.1123 -0.6756
 1215UNK    F0510932  28.100   3.439   9.046  0.1364  0.6255  0.0589
 1215UNK    F0610933  27.977   3.283   8.971  0.7132 -0.0303  0.0537
 1215UNK    F0710934  27.924   3.397   9.161  0.2454 -0.3750  0.6322
 1215UNK    H0810935  28.039   3.186   9.244 -0.8053  1.0944  0.4799
 1216UNK    F0010936  25.820   1.793   8.084 -0.1739 -0.1147  0.2139
 1216UNK    C0110937  25.874   1.678   8.029  0.0330  0.0226  0.1419
 1216UNK    H0210938  25.983   1.673   8.037  0.3208  3.0662 -1.2746
 1216UNK    C0310939  25.796   1.623   7.934 -0.1680  0.2446 -0.1803
 1216UNK    C0410940  25.653   1.639   7.945 -0.4401  0.0736 -0.3509
 1216UNK    F0510941  25.581   1.547   7.888 -0.2147  0.1959  0.0742
 1216UNK    F0610942  25.608   1.638   8.074 -0.1863  0.0540  0.0119
 1216UNK    F0710943  25.612   1.761   7.892 -0.1769 -0.1169 -0.2162
 1216UNK    H0810944  25.823   1.528   7.889 -1.2224  0.6905 -1.7911
 1217UNK    F0010945  25.288   4.315   5.101 -0.5024  0.1470  0.1676
 1217UNK    C0110946  25.327   4.446   5.097 -0.0049 -0.2316 -0.6330
 1217UNK    H0210947  25.390   4.482   5.179 -2.2326  0.8957  0.6389
 1217UNK    C0310948  25.270   4.524   5.001  0.2713 -0.0150 -0.0970
 1217UNK    C0410949  25.128   4.559   4.998 -0.6016  0.1632 -0.2943
 1217UNK    F0510950  25.113   4.675   5.062  0.4755 -0.2214 -0.0700
 1217UNK    F0610951  25.099   4.595   4.870 -0.5867  0.0887 -0.2146
 1217UNK    F0710952  25.036   4.467   5.046 -0.4118 -0.2165  0.3945
 1217UNK    H0810953  25.328   4.561   4.918 -0.0797 -1.1892 -0.8904
 1218UNK    F0010954  27.154   0.279   3.948 -0.3638 -0.0161 -0.1163
 1218UNK    C0110955  27.071   0.307   3.845  0.2795 -0.2789 -0.4450
 1218UNK    H0210956  27.063   0.225   3.774  0.6725 -1.4438  0.8397
 1218UNK    C0310957  27.013   0.429   3.834  0.4709 -0.3535  0.0725
 1218UNK    C0410958  26.958   0.510   3.947  0.1264  0.0455  0.4722
 1218UNK    F0510959  26.868   0.604   3.898 -0.0064 -0.0519 -0.7854
 1218UNK    F0610960  26.895   0.449   4.054 -0.3170  0.5544 -0.0096
 1218UNK    F0710961  27.060   0.579   4.009 -0.1342  0.1242  0.1086
 1218UNK    H0810962  27.041   0.491   3.750 -0.3048  0.7969  0.6530
 1219UNK    F0010963  25.531   3.319   7.550  0.0335 -0.4278 -0.5280
 1219UNK    C0110964  25.628   3.358   7.467 -0.1129 -0.0307 -0.1707
 1219UNK    H0210965  25.645   3.462   7.493  1.0597 -0.4963  0.9822
 1219UNK    C0310966  25.711   3.264   7.413 -0.4500 -0.0238 -0.0110
 1219UNK    C0410967  25.685   3.187   7.288  0.0505  0.8099 -0.9253
 1219UNK    F0510968  25.704   3.260   7.177  0.2173  0.3446  0.1250
 1219UNK    F0610969  25.769   3.079   7.272 -0.5853 -0.1499  0.2533
 1219UNK    F0710970  25.559   3.146   7.293  0.3096  0.4629 -0.1987
 1219UNK    H0810971  25.800   3.229   7.464 -1.5668 -1.2244  1.1648
 1220UNK    F0010972  26.466   5.099   5.666  0.2186  0.0875  0.0369
 1220UNK    C0110973  26.534   5.049   5.769 -0.3578  0.3999  0.4824
 1220UNK    H0210974  26.505   4.944   5.779 -0.8785  0.4414 -0.5018
 1220UNK    C0310975  26.601   5.121   5.858  0.7682 -0.6326  0.5009
 1220UNK    C0410976  26.677   5.049   5.957 -0.7819 -0.2769  0.4364
 1220UNK    F0510977  26.613   4.953   6.027 -0.0351 -0.5860  0.0171
 1220UNK    F0610978  26.778   4.994   5.885  0.0544  0.3192  0.3438
 1220UNK    F0710979  26.741   5.135   6.042 -0.1183 -0.2113  0.2625
 1220UNK    H0810980  26.629   5.221   5.829 -0.9405 -0.5688 -1.0622
 1221UNK    F0010981  25.966   1.532  10.428 -0.6960  0.6019  0.0835
 1221UNK    C0110982  26.082   1.541  10.364 -0.0122  0.0999  0.2566
 1221UNK    H0210983  26.068   1.573  10.261  1.0339 -0.3411 -0.0246
 1221UNK    C0310984  26.192   1.568  10.431 -0.3966 -0.1352 -0.0560
 1221UNK    C0410985  26.308   1.644  10.378 -0.0282 -0.4690  0.0223
 1221UNK    F0510986  26.350   1.588  10.264 -0.0452 -0.1274  0.3327
 1221UNK    F0610987  26.283   1.775  10.357 -0.4111  0.7250  0.3742
 1221UNK    F0710988  26.397   1.654  10.484  0.4807 -0.0199  0.1756
 1221UNK    H0810989  26.185   1.583  10.538 -1.7845  3.0274 -0.5348
 1222UNK    F0010990  29.384   1.454   8.854 -0.1514 -0.2469  0.2258
 1222UNK    C0110991  29.487   1.533   8.809 -0.5335  0.9060 -0.6233
 1222UNK    H0210992  29.460   1.581   8.715  1.1441  1.5156 -0.8062
 1222UNK    C0310993  29.600   1.542   8.880  0.2891 -0.1389  0.4237
 1222UNK    C0410994  29.698   1.647   8.862  0.1099  0.3033  0.5563
 1222UNK    F0510995  29.691   1.690   8.734 -0.1327  0.1765 -0.2909
 1222UNK    F0610996  29.655   1.745   8.947  0.1052 -0.2265 -0.4079
 1222UNK    F0710997  29.821   1.606   8.899  0.0250 -0.2484 -0.3890
 1222UNK    H0810998  29.596   1.500   8.979  2.9178 -0.4010  0.4419
 1223UNK    F0010999  28.351   2.322   8.987  0.1927  0.1165  0.1012
 1223UNK    C0111000  28.445   2.367   8.898 -0.4693  0.1260 -0.6287
 1223UNK    H0211001  28.501   2.455   8.932 -2.3437  0.1658  2.5861
 1223UNK    C0311002  28.458   2.303   8.787 -0.1182  0.3806  1.0110
 1223UNK    C0411003  28.396   2.174   8.744 -0.0170 -0.1375 -0.2350
 1223UNK    F0511004  28.423   2.152   8.613  0.2334 -0.0897  0.0560
 1223UNK    F0611005  28.439   2.075   8.828  0.1820  0.4529 -0.1366
 1223UNK    F0711006  28.262   2.175   8.760 -0.3327 -0.0677  0.2652
 1223UNK    H0811007  28.552   2.312   8.734 -1.1035  0.4514 -0.7579
 1224UNK    F0011008  25.460   3.639   5.207 -0.3001 -0.2017 -0.1800
 1224UNK    C0111009  25.559   3.559   5.186  0.0572  1.0761  0.1730
 1224UNK    H0211010  25.627   3.572   5.270  0.8583 -0.9613 -0.1266
 1224UNK    C0311011  25.535   3.453   5.107  0.1904 -0.1261 -0.5605
 1224UNK    C0411012  25.423   3.359   5.115  0.6989 -0.1044  0.6938
 1224UNK    F0511013  25.374   3.359   5.244  0.4469  0.0825 -0.0084
 1224UNK    F0611014  25.332   3.410   5.029  0.5172 -0.0854  0.3640
 1224UNK    F0711015  25.460   3.234   5.081  0.2333 -0.1357 -0.2608
 1224UNK    H0811016  25.571   3.465   5.005  1.3401  1.7715  0.0458
 1225UNK    F0011017  26.720   3.042   9.655  0.3275  0.2402  0.3280
 1225UNK    C0111018  26.735   3.176   9.628  0.1558  0.1294  0.0073
 1225UNK    H0211019  26.655   3.235   9.674  1.3342 -0.4873  2.9204
 1225UNK    C0311020  26.816   3.196   9.525  0.1926 -0.1183  0.2097
 1225UNK    C0411021  26.924   3.296   9.521 -0.3574  0.0538  0.6862
 1225UNK    F0511022  27.051   3.242   9.529  0.8454 -0.1664  0.3351
 1225UNK    F0611023  26.928   3.352   9.395 -0.1039 -0.1460  0.1450
 1225UNK    F0711024  26.899   3.390   9.614  0.7829 -0.1034  0.1877
 1225UNK    H0811025  26.826   3.112   9.458  1.9409  1.0729 -1.0512
 1226UNK    F0011026  21.203   3.842   7.095 -0.4243  0.6813 -0.5735
 1226UNK    C0111027  21.315   3.890   7.036 -0.4608 -0.3888  0.4135
 1226UNK    H0211028  21.410   3.854   7.075 -0.8455 -0.9891  0.8106
 1226UNK    C0311029  21.303   3.962   6.922 -0.1291  0.1106 -0.1580
 1226UNK    C0411030  21.415   3.956   6.816  0.2484  0.3684 -0.6229
 1226UNK    F0511031  21.386   3.852   6.733  0.1470  0.0131  0.2030
 1226UNK    F0611032  21.421   4.073   6.738 -0.1447  0.7857 -0.3328
 1226UNK    F0711033  21.536   3.936   6.880  0.6575  0.3803  0.2634
 1226UNK    H0811034  21.242   4.051   6.915  0.1323  0.1870 -1.5428
 1227UNK    F0011035  24.684   2.319   5.579 -0.4820 -0.2320 -0.2541
 1227UNK    C0111036  24.766   2.316   5.474  0.2655  0.4970 -0.2301
 1227UNK    H0211037  24.818   2.412   5.466  0.9164  0.0811 -1.0547
 1227UNK    C0311038  24.805   2.192   5.435  0.2254 -0.1900  1.2282
 1227UNK    C0411039  24.858   2.105   5.543 -0.5252 -0.4870  0.1189
 1227UNK    F0511040  24.955   2.168   5.609  0.2911  0.5180 -0.2617
 1227UNK    F0611041  24.768   2.051   5.625  0.1416  0.1993 -0.0700
 1227UNK    F0711042  24.903   1.989   5.495 -0.3124 -0.2121  0.2920
 1227UNK    H0811043  24.843   2.167   5.337 -0.1397 -1.1029  1.3189
 1228UNK    F0011044  25.339   4.357   5.413  0.1567  0.1728 -0.2546
 1228UNK    C0111045  25.434   4.267   5.410 -0.2544 -0.0031 -0.4557
 1228UNK    H0211046  25.530   4.312   5.437  0.0917 -2.3277  2.3988
 1228UNK    C0311047  25.425   4.153   5.343 -0.0790 -0.5021 -0.4097
 1228UNK    C0411048  25.510   4.040   5.371  0.0082 -0.1801  0.0894
 1228UNK    F0511049  25.628   4.074   5.419 -0.3643  0.2188 -0.2398
 1228UNK    F0611050  25.446   3.946   5.442  0.1448  0.2091  0.2714
 1228UNK    F0711051  25.526   3.980   5.245 -0.0616  0.3987  0.4132
 1228UNK    H0811052  25.347   4.148   5.269  0.1244  2.8883 -0.9567
 1229UNK    F0011053  28.292   1.504   4.308  0.1980 -0.2566 -0.2645
 1229UNK    C0111054  28.199   1.587   4.348  0.5692  0.5746  0.3339
 1229UNK    H0211055  28.231   1.619   4.447  0.8309  1.5223 -0.0544
 1229UNK    C0311056  28.130   1.660   4.258  1.0967 -0.2226  0.9393
 1229UNK    C0411057  27.995   1.629   4.219  0.0173 -0.4294  0.9650
 1229UNK    F0511058  27.953   1.721   4.125  0.4248 -0.2157 -0.1899
 1229UNK    F0611059  27.978   1.512   4.154  0.4272 -0.3997 -0.1601
 1229UNK    F0711060  27.931   1.624   4.334  0.1053  0.0294  0.8301
 1229UNK    H0811061  28.132   1.767   4.268 -0.3435 -0.0550 -0.2860
 1230UNK    F0011062  28.816   4.375   6.391  0.1916  0.6555  0.2551
 1230UNK    C0111063  28.712   4.304   6.441 -0.5905  0.3520 -0.8820
 1230UNK    H0211064  28.680   4.226   6.372 -0.9479 -0.1873 -0.1053
 1230UNK    C0311065  28.657   4.340   6.561  0.1211  0.0538  0.2098
 1230UNK    C0411066  28.548   4.264   6.624 -0.0652  0.2100  0.4732
 1230UNK    F0511067  28.448   4.244   6.539  0.7487  0.0904  0.5454
 1230UNK    F0611068  28.581   4.137   6.669  0.6832 -0.1602  0.0284
 1230UNK    F0711069  28.501   4.332   6.725 -0.3129  0.2388 -0.7448
 1230UNK    H0811070  28.703   4.418   6.619  0.1379  0.5510 -0.4672
 1231UNK    F0011071  26.063   2.789   9.071  0.5115 -0.2907 -0.0072
 1231UNK    C0111072  26.011   2.696   9.153 -0.5250 -0.2350 -0.7494
 1231UNK    H0211073  26.102   2.657   9.200 -0.9363  0.2542  0.4598
 1231UNK    C0311074  25.897   2.720   9.220  0.1257  0.3322  0.0676
 1231UNK    C0411075  25.772   2.658   9.176 -0.0979  0.0436 -0.1558
 1231UNK    F0511076  25.751   2.672   9.043  0.2192  0.1895 -0.1908
 1231UNK    F0611077  25.781   2.530   9.215  0.3748 -0.1159 -0.3796
 1231UNK    F0711078  25.664   2.718   9.228  0.2418  0.1575 -0.4048
 1231UNK    H0811079  25.910   2.726   9.327  2.6169  0.2199 -0.1952
 1232UNK    F0011080  25.497   3.108   5.935  0.1158  0.1378 -0.2585
 1232UNK    C0111081  25.453   2.988   5.897  0.0537 -0.5951  1.2410
 1232UNK    H0211082  25.344   2.990   5.907  0.0144  2.5182  0.8146
 1232UNK    C0311083  25.528   2.882   5.879  0.0055 -0.8728 -0.6304
 1232UNK    C0411084  25.511   2.780   5.773 -0.8947 -0.4157 -0.0787
 1232UNK    F0511085  25.609   2.688   5.785 -0.1690  0.2065  0.1074
 1232UNK    F0611086  25.391   2.718   5.776  0.0583  0.5891 -0.1467
 1232UNK    F0711087  25.537   2.834   5.651  0.1348  0.5362 -0.0698
 1232UNK    H0811088  25.566   2.826   5.962  1.2874 -0.4340 -0.9149
 1233UNK    F0011089  30.669   3.913   7.746  0.0832 -0.9356 -0.0634
 1233UNK    C0111090  30.567   3.923   7.664 -0.7179  0.0687 -0.0717
 1233UNK    H0211091  30.600   3.980   7.576 -1.7677 -0.7037 -0.9760
 1233UNK    C0311092  30.447   3.872   7.692  0.2719 -0.1136 -0.0710
 1233UNK    C0411093  30.329   3.939   7.756  0.5856  0.3263  0.4454
 1233UNK    F0511094  30.260   3.851   7.831  0.0389  0.0810  0.3339
 1233UNK    F0611095  30.345   4.049   7.828  0.0085  0.4082  0.1153
 1233UNK    F0711096  30.233   3.991   7.667  0.1212  0.3892 -0.3019
 1233UNK    H0811097  30.416   3.787   7.633 -0.8671  0.1277  0.1784
 1234UNK    F0011098  24.750   3.381   8.619  0.3297  0.3735  0.3881
 1234UNK    C0111099  24.742   3.368   8.750  0.2886 -0.7048 -0.4028
 1234UNK    H0211100  24.682   3.277   8.762  0.3009 -0.5501  0.8945
 1234UNK    C0311101  24.851   3.404   8.821  1.2536 -0.6883  0.2355
 1234UNK    C0411102  24.843   3.389   8.967  0.3393  0.3978 -0.0745
 1234UNK    F0511103  24.879   3.265   9.006 -0.4547 -0.1594  0.2082
 1234UNK    F0611104  24.911   3.481   9.043  0.2737 -0.0373  0.2008
 1234UNK    F0711105  24.710   3.396   9.009 -0.5686 -0.2578  0.5163
 1234UNK    H0811106  24.947   3.373   8.782  1.8323  2.2325 -0.7325
 1235UNK    F0011107  28.944   3.354   8.629  0.4421  0.6412  0.1189
 1235UNK    C0111108  28.992   3.429   8.528  0.1775  0.1852  0.4228
 1235UNK    H0211109  29.081   3.482   8.563  0.6518  1.9178 -3.1826
 1235UNK    C0311110  28.929   3.459   8.417  0.3214 -0.3585 -0.1217
 1235UNK    C0411111  28.995   3.527   8.297 -0.1443 -0.0889 -0.2767
 1235UNK    F0511112  29.075   3.437   8.237 -0.1311 -0.0639  0.1169
 1235UNK    F0611113  28.897   3.565   8.208  0.2748  0.0320 -0.3107
 1235UNK    F0711114  29.074   3.634   8.327  0.4673 -0.0040 -0.4161
 1235UNK    H0811115  28.831   3.415   8.409  0.5054 -1.4280  2.6574
 1236UNK    F0011116  25.139   3.360   5.917 -0.2516  0.2146  0.1870
 1236UNK    C0111117  25.170   3.276   6.013  0.0176 -0.0315 -0.0523
 1236UNK    H0211118  25.267   3.232   5.989 -0.1116  0.8737 -2.3618
 1236UNK    C0311119  25.063   3.215   6.065  0.8500 -0.3340 -0.2432
 1236UNK    C0411120  24.976   3.117   5.991  0.0924  0.9251 -0.8901
 1236UNK    F0511121  24.863   3.079   6.059 -0.1824  0.1145  0.4453
 1236UNK    F0611122  24.943   3.162   5.871  0.3371 -0.2676  0.1586
 1236UNK    F0711123  25.058   3.011   5.972 -0.3247  0.2538  0.3377
 1236UNK    H0811124  25.012   3.260   6.149  0.1184 -0.5523 -0.5627
 1237UNK    F0011125  25.348   4.679   7.139  0.2193 -0.1435  0.0139
 1237UNK    C0111126  25.276   4.774   7.069  0.4673 -0.2275 -0.2286
 1237UNK    H0211127  25.241   4.846   7.142  1.4371  0.5809 -0.5451
 1237UNK    C0311128  25.311   4.804   6.939  0.3420 -0.1690  0.1767
 1237UNK    C0411129  25.282   4.941   6.893 -0.5098 -0.6993 -0.4814
 1237UNK    F0511130  25.154   4.953   6.920  0.0850  0.1959  0.3192
 1237UNK    F0611131  25.353   5.023   6.974  0.3031 -0.7570  0.6414
 1237UNK    F0711132  25.316   4.969   6.765  0.0594 -0.2571  0.5983
 1237UNK    H0811133  25.361   4.743   6.865  1.6450  0.4461  0.5381
 1238UNK    F0011134  24.162   1.736   5.858  0.7052  0.1328  0.8308
 1238UNK    C0111135  24.059   1.662   5.808  0.3799  0.2180  0.3441
 1238UNK    H0211136  24.079   1.556   5.822 -1.2506 -0.2146 -0.4641
 1238UNK    C0311137  23.986   1.718   5.714 -0.3339 -0.4386 -0.0065
 1238UNK    C0411138  23.863   1.659   5.672  0.1847  1.0458  0.2596
 1238UNK    F0511139  23.880   1.532   5.643 -0.6414 -0.5009  0.1148
 1238UNK    F0611140  23.776   1.685   5.773  0.4369 -0.0784  0.0798
 1238UNK    F0711141  23.807   1.725   5.563  0.6436 -0.1454 -0.6358
 1238UNK    H0811142  24.033   1.779   5.638  0.7807  2.2840  2.7640
 1239UNK    F0011143  25.825   2.652   8.697 -0.7439  0.1601  0.0023
 1239UNK    C0111144  25.862   2.527   8.741 -0.0321 -0.3659  0.0480
 1239UNK    H0211145  25.963   2.511   8.702  0.5276  0.3739  1.1644
 1239UNK    C0311146  25.783   2.452   8.815 -0.5649 -0.0090 -0.3385
 1239UNK    C0411147  25.834   2.353   8.915 -0.5155  0.1902  0.2304
 1239UNK    F0511148  25.915   2.417   9.006 -0.2052  0.1840  0.4808
 1239UNK    F0611149  25.731   2.292   8.976 -0.3367  0.0400 -0.0992
 1239UNK    F0711150  25.905   2.250   8.858 -0.0275  0.0809  0.0317
 1239UNK    H0811151  25.695   2.492   8.863  0.4003 -0.5907  1.9979
 1240UNK    F0011152  27.277   0.814   7.030  0.3410  0.1375 -0.4837
 1240UNK    C0111153  27.265   0.756   7.155  0.0254 -1.0739  0.6349
 1240UNK    H0211154  27.320   0.810   7.232  2.6946 -2.6914 -0.1039
 1240UNK    C0311155  27.169   0.665   7.177  0.0129  0.0815  0.3147
 1240UNK    C0411156  27.200   0.519   7.183  0.5356 -0.2760 -0.5718
 1240UNK    F0511157  27.087   0.444   7.176  0.1291 -0.6145  0.1715
 1240UNK    F0611158  27.290   0.467   7.091  0.0227 -0.2031 -0.1288
 1240UNK    F0711159  27.250   0.487   7.309  0.3954 -0.0794  0.4021
 1240UNK    H0811160  27.067   0.691   7.199  0.4090 -0.5293  3.0888
 1241UNK    F0011161  26.246   3.263   6.709 -0.3916  0.2727 -0.1028
 1241UNK    C0111162  26.203   3.371   6.643  0.1390 -0.1896 -0.7616
 1241UNK    H0211163  26.195   3.353   6.536  1.5953  0.9017 -1.0783
 1241UNK    C0311164  26.155   3.473   6.710 -0.2270 -0.1109 -0.5761
 1241UNK    C0411165  26.135   3.475   6.864 -0.3796  0.3430  1.2904
 1241UNK    F0511166  26.114   3.353   6.929  0.2676  0.0280 -0.1728
 1241UNK    F0611167  26.238   3.529   6.917 -0.4297  0.1692  0.1479
 1241UNK    F0711168  26.037   3.560   6.900  0.5451  0.3213  0.3634
 1241UNK    H0811169  26.074   3.532   6.668  0.3670 -0.0739 -1.6958
 1242UNK    F0011170  23.171   4.538  10.171 -0.1806  0.1262  0.4654
 1242UNK    C0111171  23.235   4.437  10.229 -0.3444  0.3777  0.3357
 1242UNK    H0211172  23.277   4.371  10.154  1.5568  0.3313  1.4087
 1242UNK    C0311173  23.193   4.403  10.353  0.1021  0.3869 -0.1640
 1242UNK    C0411174  23.106   4.290  10.386 -0.2396  0.3235 -0.0836
 1242UNK    F0511175  23.190   4.185  10.404  0.3934  0.0552 -0.3313
 1242UNK    F0611176  23.032   4.314  10.495  0.3450  0.0293 -0.3859
 1242UNK    F0711177  23.015   4.253  10.293 -0.4039  0.1713 -0.4473
 1242UNK    H0811178  23.200   4.473  10.435  0.3194 -1.5587  1.5023
 1243UNK    F0011179  24.864   0.485   9.927  0.1517  0.0413  0.3359
 1243UNK    C0111180  24.906   0.438  10.046 -0.3523  0.0901  0.4510
 1243UNK    H0211181  24.999   0.381  10.036  0.3093  1.6545 -3.0688
 1243UNK    C0311182  24.832   0.472  10.155 -0.0871  0.0480 -0.2488
 1243UNK    C0411183  24.892   0.471  10.292 -0.1391 -1.0989 -0.0543
 1243UNK    F0511184  24.931   0.594  10.333  0.3070 -0.4783  0.4958
 1243UNK    F0611185  24.785   0.448  10.374 -0.4918  0.3056  0.3571
 1243UNK    F0711186  24.979   0.372  10.316 -0.1804  0.1279 -0.9610
 1243UNK    H0811187  24.753   0.543  10.136 -0.8891 -0.5496  0.8213
 1244UNK    F0011188  24.586   0.959   9.213  0.3408 -0.1917 -0.2680
 1244UNK    C0111189  24.707   0.970   9.275 -0.2030  0.3580 -0.1913
 1244UNK    H0211190  24.712   0.906   9.363  0.6952 -0.6172 -0.9484
 1244UNK    C0311191  24.811   1.000   9.201  0.5948 -0.2794  0.1772
 1244UNK    C0411192  24.943   0.945   9.218  0.0996  0.1308 -0.1940
 1244UNK    F0511193  24.936   0.811   9.228  0.5111  0.2922  0.2118
 1244UNK    F0611194  25.015   0.952   9.109  0.1692  0.3348  0.3201
 1244UNK    F0711195  25.013   1.005   9.320  0.0148  0.1797  0.1046
 1244UNK    H0811196  24.795   1.031   9.099 -0.5245 -0.1318  0.3940
 1245UNK    F0011197  24.298   0.072   9.156 -0.0476 -0.4127  0.3605
 1245UNK    C0111198  24.313   0.173   9.073  0.9112 -0.2821  0.9988
 1245UNK    H0211199  24.306   0.138   8.970  2.4128  1.3477  0.2951
 1245UNK    C0311200  24.260   0.279   9.123  0.0099  1.2107 -0.2945
 1245UNK    C0411201  24.199   0.383   9.044  0.4336  0.5268  0.9196
 1245UNK    F0511202  24.171   0.493   9.115 -0.3792 -0.6608 -0.2176
 1245UNK    F0611203  24.281   0.428   8.938 -0.5047 -0.3959  0.0497
 1245UNK    F0711204  24.087   0.334   8.974 -0.4849  0.2810 -0.1745
 1245UNK    H0811205  24.239   0.287   9.229  0.5204  1.1348 -0.1840
 1246UNK    F0011206  25.065   4.751   8.687 -0.3743 -0.1615 -0.2130
 1246UNK    C0111207  24.948   4.750   8.738  0.1585 -0.6805 -0.3182
 1246UNK    H0211208  24.943   4.699   8.834 -0.1161 -0.0109  0.0250
 1246UNK    C0311209  24.842   4.775   8.663 -0.0217  0.3259 -0.0273
 1246UNK    C0411210  24.714   4.821   8.729  0.0957  0.3992 -0.0287
 1246UNK    F0511211  24.702   4.771   8.857  0.0689 -0.2068 -0.4084
 1246UNK    F0611212  24.722   4.952   8.745  0.1997  0.2468  0.5149
 1246UNK    F0711213  24.603   4.803   8.652  0.0376  0.1835 -0.0794
 1246UNK    H0811214  24.849   4.787   8.556 -1.5397  3.2169  0.1574
 1247UNK    F0011215  28.255   0.863   9.316 -0.1010  0.3561  0.3756
 1247UNK    C0111216  28.370   0.832   9.254 -0.3960  0.3767 -0.1374
 1247UNK    H0211217  28.437   0.918   9.243 -0.5862  0.3686 -1.4986
 1247UNK    C0311218  28.363   0.746   9.151 -0.4201 -0.5248 -0.2368
 1247UNK    C0411219  28.483   0.678   9.095 -0.6395  0.5519 -0.3319
 1247UNK    F0511220  28.530   0.571   9.168  0.3608  0.0608 -0.5946
 1247UNK    F0611221  28.456   0.608   8.984 -0.6727  0.1414 -0.6811
 1247UNK    F0711222  28.583   0.768   9.070  0.4215  0.3557  0.3379
 1247UNK    H0811223  28.280   0.747   9.082  0.0546 -0.5966 -0.8083
 1248UNK    F0011224  26.370   4.703   8.944 -0.4005 -0.0946 -0.2197
 1248UNK    C0111225  26.244   4.703   8.977 -0.5172 -0.4151  0.1205
 1248UNK    H0211226  26.237   4.723   9.084  2.4425  1.1586  0.0543
 1248UNK    C0311227  26.158   4.737   8.876  0.6656 -0.1271 -0.4250
 1248UNK    C0411228  26.021   4.781   8.894 -0.2350  0.5206  0.2648
 1248UNK    F0511229  25.975   4.811   8.769  0.2524 -0.0032 -0.3317
 1248UNK    F0611230  25.946   4.693   8.959  0.4346  0.4161 -0.1364
 1248UNK    F0711231  26.026   4.898   8.964  0.5682 -0.0243 -0.3767
 1248UNK    H0811232  26.186   4.706   8.777 -3.3477 -0.7914 -1.4428
 1249UNK    F0011233  24.888   4.670   7.694  0.2298  0.4137 -0.3531
 1249UNK    C0111234  24.910   4.592   7.583 -0.3074 -0.0614  0.0210
 1249UNK    H0211235  24.828   4.526   7.554 -1.0315  0.6569  0.3904
 1249UNK    C0311236  25.030   4.570   7.530  0.5010 -0.2897  1.2825
 1249UNK    C0411237  25.049   4.563   7.382 -0.7261 -0.1439 -0.0896
 1249UNK    F0511238  24.942   4.496   7.324  0.2112 -0.1752 -0.2370
 1249UNK    F0611239  25.070   4.681   7.320  0.1996  0.2951 -0.6375
 1249UNK    F0711240  25.168   4.496   7.375  0.0274 -0.0119  0.0603
 1249UNK    H0811241  25.106   4.513   7.580  1.9179 -2.9455 -3.5197
 1250UNK    F0011242  29.313   2.623   8.248 -0.3510  0.7036  0.0306
 1250UNK    C0111243  29.343   2.701   8.356 -0.0998 -0.1379 -0.1246
 1250UNK    H0211244  29.291   2.656   8.441 -0.2391  0.1934 -0.0367
 1250UNK    C0311245  29.465   2.752   8.360 -0.1321 -0.5352 -0.5744
 1250UNK    C0411246  29.582   2.671   8.389 -0.5310 -0.1947 -0.3742
 1250UNK    F0511247  29.688   2.719   8.455 -0.5312 -0.0597  0.3518
 1250UNK    F0611248  29.559   2.550   8.446  0.3363 -0.1498 -0.2067
 1250UNK    F0711249  29.633   2.641   8.268 -0.0393  0.0657  0.2455
 1250UNK    H0811250  29.469   2.853   8.320 -1.8154 -0.0660  0.3697
 1251UNK    F0011251  24.241   0.833   3.937 -0.8126  0.2110 -0.3516
 1251UNK    C0111252  24.114   0.790   3.971 -0.0721  0.4306 -0.0554
 1251UNK    H0211253  24.123   0.710   4.045  1.6738 -0.3195 -1.0276
 1251UNK    C0311254  24.020   0.880   3.966 -0.3704 -0.3760 -0.3368
 1251UNK    C0411255  23.901   0.877   4.048  0.2846 -0.4895 -0.1619
 1251UNK    F0511256  23.800   0.956   4.001  0.8117  0.0790 -0.0864
 1251UNK    F0611257  23.863   0.748   4.062 -0.0486  0.2226  0.5261
 1251UNK    F0711258  23.927   0.933   4.174  0.1896 -0.3930  0.0841
 1251UNK    H0811259  24.056   0.980   3.949 -1.9850  0.4041  0.7340
 1252UNK    F0011260  24.156   0.130   9.521 -0.6304 -0.3417  0.3155
 1252UNK    C0111261  24.116   0.122   9.647 -0.2398  0.1406  0.2591
 1252UNK    H0211262  24.035   0.194   9.657  0.9322  1.3884  0.9107
 1252UNK    C0311263  24.149   0.027   9.730 -0.4955  0.5791 -0.4209
 1252UNK    C0411264  24.280   0.023   9.804 -0.2235 -0.3476 -0.8211
 1252UNK    F0511265  24.393   0.077   9.748  0.2304  0.4419  0.4736
 1252UNK    F0611266  24.259   0.082   9.923 -0.1405 -0.8482 -0.1073
 1252UNK    F0711267  24.313  -0.106   9.814 -0.3001  0.4338  0.0199
 1252UNK    H0811268  24.069  -0.036   9.768  0.6996 -1.1667 -0.7219
 1253UNK    F0011269  23.362   1.652   9.242  0.3723 -0.1033 -0.2283
 1253UNK    C0111270  23.322   1.729   9.349 -0.4446  0.1013  0.8766
 1253UNK    H0211271  23.395   1.807   9.371 -0.5169  0.5342 -0.3676
 1253UNK    C0311272  23.190   1.742   9.356 -0.3453 -0.5711 -0.2958
 1253UNK    C0411273  23.116   1.849   9.430  0.0363 -0.3441 -0.0359
 1253UNK    F0511274  23.194   1.904   9.520  0.2245 -0.2910  0.2169
 1253UNK    F0611275  23.090   1.944   9.341 -0.3470  0.2732  0.2481
 1253UNK    F0711276  23.004   1.800   9.483 -0.0792  0.4849  0.0006
 1253UNK    H0811277  23.126   1.673   9.303 -1.6268 -0.4350  1.0620
 1254UNK    F0011278  27.216   0.486  10.161 -0.3726  0.1015 -0.0801
 1254UNK    C0111279  27.342   0.488  10.124  0.6027 -0.0151  0.4411
 1254UNK    H0211280  27.366   0.526  10.025  1.6481  0.2792  0.7896
 1254UNK    C0311281  27.433   0.474  10.219  0.1864  0.3736 -0.4157
 1254UNK    C0411282  27.574   0.451  10.187 -0.5582  0.0196 -0.2261
 1254UNK    F0511283  27.646   0.564  10.181 -0.2435 -0.0229 -0.4154
 1254UNK    F0611284  27.625   0.373  10.288 -0.4595 -0.4151  0.0175
 1254UNK    F0711285  27.584   0.389  10.065 -0.5815  0.2385 -0.5226
 1254UNK    H0811286  27.405   0.471  10.323 -0.4706 -0.3668 -0.6147
 1255UNK    F0011287  28.615   1.440   9.475  0.4156 -0.3083  0.2374
 1255UNK    C0111288  28.534   1.436   9.581 -0.3929 -0.4832 -0.0443
 1255UNK    H0211289  28.586   1.476   9.668  2.3621 -2.3864 -0.7642
 1255UNK    C0311290  28.427   1.359   9.575 -0.4311  0.2530  0.0109
 1255UNK    C0411291  28.309   1.385   9.662  0.1594  0.1319 -0.0705
 1255UNK    F0511292  28.356   1.426   9.780 -0.5321 -0.2823  0.3240
 1255UNK    F0611293  28.233   1.478   9.593 -0.3189  0.3652 -0.0505
 1255UNK    F0711294  28.237   1.274   9.668 -0.1523  0.2307  0.1136
 1255UNK    H0811295  28.399   1.318   9.480  0.3592  1.0206 -0.5579
 1256UNK    F0011296  25.811   4.165   8.385  0.4979 -0.0400  0.0922
 1256UNK    C0111297  25.687   4.191   8.341  0.0159  0.1318  0.0470
 1256UNK    H0211298  25.695   4.248   8.248  0.9682  0.4410  0.3133
 1256UNK    C0311299  25.589   4.189   8.430 -0.5476 -0.1655  0.0979
 1256UNK    C0411300  25.443   4.181   8.407  0.0001 -0.4476  0.4018
 1256UNK    F0511301  25.406   4.266   8.310  0.1825  0.1730  0.4802
 1256UNK    F0611302  25.402   4.058   8.379  0.1617 -0.9248 -0.4953
 1256UNK    F0711303  25.373   4.216   8.517 -0.8281 -0.2640  0.0117
 1256UNK    H0811304  25.616   4.147   8.526  2.0385 -0.5877 -0.7586
 1257UNK    F0011305  28.535   2.870   9.465 -0.0357  0.5590 -0.0064
 1257UNK    C0111306  28.538   2.800   9.348  0.1136  0.2623  0.3310
 1257UNK    H0211307  28.590   2.707   9.369 -2.2613 -0.7711  1.8951
 1257UNK    C0311308  28.480   2.840   9.234 -0.2231 -0.4387  0.5436
 1257UNK    C0411309  28.419   2.762   9.123 -0.5564 -0.2511 -0.6790
 1257UNK    F0511310  28.439   2.814   8.997  0.3383  0.1992  0.2269
 1257UNK    F0611311  28.441   2.629   9.120 -0.3470 -0.2320  0.5740
 1257UNK    F0711312  28.284   2.776   9.138  0.0843 -0.0205  0.1059
 1257UNK    H0811313  28.504   2.941   9.203  1.9250 -1.8055 -2.4859
 1258UNK    F0011314  26.926   4.935  10.825 -0.3423 -0.7157  0.1187
 1258UNK    C0111315  26.796   4.946  10.792 -0.1976  0.4970 -0.7294
 1258UNK    H0211316  26.784   4.950  10.684 -0.3465  0.3123 -0.7197
 1258UNK    C0311317  26.704   4.958  10.888 -0.1492 -0.5499  0.4863
 1258UNK    C0411318  26.577   4.876  10.891  0.1621  0.8246 -0.2211
 1258UNK    F0511319  26.605   4.747  10.923  0.0171  0.1429 -0.0179
 1258UNK    F0611320  26.481   4.922  10.971 -0.0639 -0.0006 -0.3066
 1258UNK    F0711321  26.517   4.857  10.770  0.2203  0.0068  0.3246
 1258UNK    H0811322  26.727   5.018  10.974 -0.8095  2.0681 -1.1175
 1259UNK    F0011323  26.685   1.179  10.003 -0.4650  0.0246 -0.5231
 1259UNK    C0111324  26.646   1.200  10.129  0.1366  0.2889 -0.3203
 1259UNK    H0211325  26.543   1.233  10.139  0.7138  1.6453  1.5407
 1259UNK    C0311326  26.736   1.188  10.229 -0.6318 -0.0613 -0.4507
 1259UNK    C0411327  26.709   1.127  10.362  0.8348  0.5149  0.2743
 1259UNK    F0511328  26.713   0.991  10.359 -0.0282 -0.0145 -0.2210
 1259UNK    F0611329  26.810   1.166  10.442  0.0437 -0.3867  0.1502
 1259UNK    F0711330  26.584   1.163  10.412 -0.4052  0.2504 -0.4618
 1259UNK    H0811331  26.838   1.198  10.196 -0.0431  2.3255  1.8470
 1260UNK    F0011332  25.873   4.047  10.117 -0.0681  0.3613  0.0340
 1260UNK    C0111333  25.800   4.016  10.012 -0.0701  0.2302 -0.3221
 1260UNK    H0211334  25.842   3.931   9.958 -1.2608  0.8555 -2.2352
 1260UNK    C0311335  25.718   4.110   9.961  0.0016 -0.1831  0.2672
 1260UNK    C0411336  25.618   4.090   9.857  0.3837  0.3935  0.0722
 1260UNK    F0511337  25.674   4.041   9.746 -0.0944 -0.7182 -0.2627
 1260UNK    F0611338  25.518   4.007   9.897 -0.3658  0.1058 -0.4245
 1260UNK    F0711339  25.573   4.217   9.839 -0.0030  0.0771  0.2202
 1260UNK    H0811340  25.746   4.214   9.974 -1.8313  0.4669 -0.8417
 1261UNK    F0011341  25.367   3.782  10.095  0.1714  0.5097 -0.0686
 1261UNK    C0111342  25.449   3.760  10.200  0.9935  0.8395 -1.0439
 1261UNK    H0211343  25.533   3.693  10.179  1.5431  0.5099  1.9796
 1261UNK    C0311344  25.411   3.795  10.320 -0.0431  0.1314 -0.0685
 1261UNK    C0411345  25.488   3.797  10.441  0.4790 -0.2980  0.0852
 1261UNK    F0511346  25.493   3.926  10.487 -0.3595  0.0973 -0.1166
 1261UNK    F0611347  25.429   3.731  10.546 -0.2780 -0.2126 -0.3576
 1261UNK    F0711348  25.612   3.746  10.429 -0.1871  0.1909  0.3246
 1261UNK    H0811349  25.316   3.845  10.332 -0.7318 -1.2369  0.2008
 1262UNK    F0011350  29.783   2.968   8.937  0.3847  0.2948 -0.0428
 1262UNK    C0111351  29.893   2.996   9.009  0.2696  0.5014 -0.1738
 1262UNK    H0211352  29.876   2.986   9.116  0.4380  5.1546  0.4041
 1262UNK    C0311353  30.002   2.947   8.949 -0.0851 -0.2196  0.0766
 1262UNK    C0411354  30.126   2.909   9.013 -0.8396 -0.4611 -0.5914
 1262UNK    F0511355  30.236   2.907   8.932  0.0694 -0.1287  0.1175
 1262UNK    F0611356  30.153   2.990   9.119 -0.3069 -0.2885  0.4157
 1262UNK    F0711357  30.112   2.785   9.069  0.0620 -0.2723  0.5237
 1262UNK    H0811358  29.989   2.921   8.845 -0.6757 -3.6682  0.9222
 1263UNK    F0011359  25.103   5.079  11.505 -0.1721 -0.1722 -0.3040
 1263UNK    C0111360  25.181   5.027  11.413 -0.7882  0.2895  0.5502
 1263UNK    H0211361  25.162   4.919  11.413  0.3045  0.0969  0.1655
 1263UNK    C0311362  25.287   5.093  11.375 -0.4260 -0.0921 -0.3747
 1263UNK    C0411363  25.333   5.081  11.243 -0.2869 -0.1365  0.1858
 1263UNK    F0511364  25.234   5.122  11.159 -0.5552  0.3399 -0.7969
 1263UNK    F0611365  25.452   5.149  11.223  0.3483  0.3660 -0.3942
 1263UNK    F0711366  25.358   4.949  11.216 -0.3891 -0.4012  0.2880
 1263UNK    H0811367  25.346   5.138  11.453 -1.1113  1.2329 -0.6039
 1264UNK    F0011368  24.937   4.346   9.824  0.2296 -0.2684  0.1155
 1264UNK    C0111369  24.964   4.322   9.952 -0.6044 -0.2975  0.0992
 1264UNK    H0211370  24.880   4.360  10.012 -2.3032 -0.4117 -2.1454
 1264UNK    C0311371  25.085   4.290   9.991 -0.3511 -0.4745 -0.3756
 1264UNK    C0411372  25.179   4.395  10.048 -0.9137  0.2411  0.5019
 1264UNK    F0511373  25.210   4.496   9.964 -0.0614 -0.3474  0.4856
 1264UNK    F0611374  25.144   4.453  10.165 -0.1766 -0.7796 -0.2170
 1264UNK    F0711375  25.295   4.333  10.077  0.5988  0.0517  0.2451
 1264UNK    H0811376  25.137   4.197   9.975 -0.3198 -0.9471  2.1540
 1265UNK    F0011377  25.876   4.223  10.718 -0.4395 -0.0452  0.3328
 1265UNK    C0111378  25.867   4.322  10.629  0.3984  0.0689 -0.1154
 1265UNK    H0211379  25.832   4.413  10.678  0.2502  0.2175 -0.4946
 1265UNK    C0311380  25.896   4.318  10.500  0.2978  0.1347  0.5452
 1265UNK    C0411381  26.018   4.257  10.447  0.0391 -0.2461  0.0442
 1265UNK    F0511382  25.998   4.118  10.442  0.6012  0.1112  0.3393
 1265UNK    F0611383  26.034   4.299  10.321  0.2892  0.0462 -0.6890
 1265UNK    F0711384  26.117   4.300  10.522 -0.5364  0.2433  0.2042
 1265UNK    H0811385  25.836   4.376  10.431 -0.1459 -0.6038  0.3046
 1266UNK    F0011386  26.490   0.583   9.457 -0.1593 -0.2453 -0.2364
 1266UNK    C0111387  26.385   0.662   9.497 -0.3195  0.2394  0.4052
 1266UNK    H0211388  26.414   0.746   9.560 -1.2214 -0.1600  1.3699
 1266UNK    C0311389  26.268   0.649   9.443 -0.2010 -0.4119  0.9025
 1266UNK    C0411390  26.173   0.753   9.484 -0.6859 -1.1184  0.2992
 1266UNK    F0511391  26.046   0.712   9.456 -0.3246  0.4892 -0.3696
 1266UNK    F0611392  26.160   0.791   9.619  0.1430 -0.0786  0.1919
 1266UNK    F0711393  26.206   0.861   9.410  0.4752 -0.2891 -0.1357
 1266UNK    H0811394  26.270   0.647   9.335 -1.6041 -0.5740  0.8647
 1267UNK    F0011395  28.825   0.660   9.596  0.0975 -0.5367 -0.2807
 1267UNK    C0111396  28.892   0.674   9.481 -0.2059 -0.1684 -0.4709
 1267UNK    H0211397  28.994   0.712   9.489  0.2075 -0.4651 -3.6783
 1267UNK    C0311398  28.832   0.635   9.371 -0.4245  0.1725 -0.3361
 1267UNK    C0411399  28.892   0.538   9.281  0.2904  0.1724 -0.2888
 1267UNK    F0511400  29.024   0.517   9.278  0.4060 -0.4739 -0.5350
 1267UNK    F0611401  28.825   0.428   9.317 -0.0191  0.4729 -0.0834
 1267UNK    F0711402  28.865   0.573   9.153  0.1472 -0.1771 -0.4181
 1267UNK    H0811403  28.745   0.693   9.345 -0.9556 -0.6977 -0.5017
 1268UNK    F0011404  26.585   0.557  10.594  0.4353  0.1097  0.1358
 1268UNK    C0111405  26.551   0.470  10.690 -0.4348  0.0894 -0.0103
 1268UNK    H0211406  26.447   0.439  10.689 -0.7363  1.1042 -0.8876
 1268UNK    C0311407  26.628   0.464  10.799 -0.8428 -0.4235 -0.5400
 1268UNK    C0411408  26.650   0.337  10.872  0.1839  0.0622 -0.4445
 1268UNK    F0511409  26.710   0.243  10.797  0.3311  0.1308 -0.5816
 1268UNK    F0611410  26.729   0.355  10.978 -0.1201 -0.1290 -0.2215
 1268UNK    F0711411  26.540   0.283  10.917  0.2147 -0.1640  0.2085
 1268UNK    H0811412  26.625   0.547  10.868 -0.9848 -1.1765  0.3676
 1269UNK    F0011413  27.384   2.173  11.115 -0.5305 -0.0500 -0.3213
 1269UNK    C0111414  27.507   2.119  11.087  0.3272 -0.0135  1.0048
 1269UNK    H0211415  27.573   2.112  11.174  0.2418  0.2688  1.0937
 1269UNK    C0311416  27.522   2.062  10.968 -0.0526  0.2509  0.6232
 1269UNK    C0411417  27.439   1.955  10.914  0.4412 -0.3910 -0.6035
 1269UNK    F0511418  27.503   1.864  10.836  0.5125 -0.0454 -0.2466
 1269UNK    F0611419  27.384   1.889  11.019  0.2112  0.0170 -0.1017
 1269UNK    F0711420  27.343   2.019  10.845  0.0150 -0.0331  0.1130
 1269UNK    H0811421  27.605   2.092  10.906 -0.3008 -1.3090 -0.4798
 1270UNK    F0011422  26.841   3.841   9.591 -0.3224 -0.0440  0.0596
 1270UNK    C0111423  26.719   3.801   9.620 -0.4806 -0.0871 -0.8825
 1270UNK    H0211424  26.652   3.883   9.596  0.0131  0.1865 -1.3269
 1270UNK    C0311425  26.699   3.684   9.680  0.2200 -0.0038  0.4580
 1270UNK    C0411426  26.579   3.604   9.665 -0.1700 -0.0598 -0.1652
 1270UNK    F0511427  26.574   3.551   9.541  0.3224 -0.3766 -0.7641
 1270UNK    F0611428  26.574   3.502   9.758  0.1309 -0.0888 -0.1863
 1270UNK    F0711429  26.472   3.685   9.687 -0.0144  0.3390 -0.3926
 1270UNK    H0811430  26.772   3.659   9.756 -0.4779  2.4574  1.9785
 1271UNK    F0011431  23.427   2.285  12.584 -0.3490 -0.0400 -0.1060
 1271UNK    C0111432  23.384   2.282  12.460  0.2036 -0.7626 -0.1475
 1271UNK    H0211433  23.416   2.195  12.404  0.0611 -1.5102  0.9309
 1271UNK    C0311434  23.353   2.404  12.415  0.0089 -0.2210  0.3456
 1271UNK    C0411435  23.325   2.441  12.276  0.3739  0.6692  0.3944
 1271UNK    F0511436  23.392   2.557  12.258 -0.5176  0.1390  0.2230
 1271UNK    F0611437  23.362   2.346  12.185 -0.0820 -0.2126 -0.2127
 1271UNK    F0711438  23.197   2.476  12.260  0.5252  0.3059  0.0816
 1271UNK    H0811439  23.295   2.467  12.481  1.2894 -0.7736  2.0379
 1272UNK    F0011440  28.079   4.763  10.322 -0.0876  0.4751 -0.7033
 1272UNK    C0111441  27.959   4.801  10.375 -0.5008 -0.5308  0.3614
 1272UNK    H0211442  27.922   4.872  10.301 -0.3075  0.3420  1.1021
 1272UNK    C0311443  27.929   4.758  10.499  1.0300 -0.5868 -1.0164
 1272UNK    C0411444  28.000   4.812  10.617 -0.3757  0.1901 -0.2832
 1272UNK    F0511445  27.957   4.935  10.642  0.2065  0.0291  0.6725
 1272UNK    F0611446  27.973   4.735  10.721  0.3997 -0.3593 -0.3563
 1272UNK    F0711447  28.137   4.815  10.613 -0.1988 -0.2243  0.2496
 1272UNK    H0811448  27.845   4.693  10.515  1.1131 -0.3988  0.2455
 1273UNK    F0011449  24.853   2.095  11.251  0.3270  0.3160  0.0116
 1273UNK    C0111450  24.836   2.021  11.143 -0.9872  0.2317 -0.9498
 1273UNK    H0211451  24.894   2.068  11.064  2.0612  1.2284  1.7891
 1273UNK    C0311452  24.778   1.900  11.150 -0.0844 -0.7298  0.6234
 1273UNK    C0411453  24.761   1.810  11.039 -0.1844  0.4381  0.2170
 1273UNK    F0511454  24.724   1.874  10.933  0.1575  0.0776  0.0973
 1273UNK    F0611455  24.871   1.732  11.010  0.4378  0.6223 -0.2683
 1273UNK    F0711456  24.660   1.724  11.076  0.2016 -0.1252  0.9399
 1273UNK    H0811457  24.698   1.890  11.221 -2.3760  0.1727 -1.7427
 1274UNK    F0011458  26.679   4.500  10.497 -0.1510 -0.0000  0.3146
 1274UNK    C0111459  26.605   4.607  10.538 -0.0830 -0.5786 -0.0465
 1274UNK    H0211460  26.629   4.643  10.638 -0.6965 -0.7174  0.1510
 1274UNK    C0311461  26.523   4.677  10.457  0.4805  0.4808 -0.5105
 1274UNK    C0411462  26.399   4.622  10.412 -0.4281  0.5659 -0.3423
 1274UNK    F0511463  26.405   4.494  10.379  0.2888  0.3299 -0.1003
 1274UNK    F0611464  26.294   4.640  10.495  0.0347  0.1732  0.2627
 1274UNK    F0711465  26.365   4.678  10.295  0.6408  0.1517  0.5143
 1274UNK    H0811466  26.557   4.754  10.390  0.4007  1.6468  0.7615
 1275UNK    F0011467  26.280   2.019  10.239  0.0966 -0.1968 -0.1434
 1275UNK    C0111468  26.214   2.112  10.313 -0.1669 -0.1696 -0.0426
 1275UNK    H0211469  26.124   2.067  10.353  0.8739 -1.0385  1.3702
 1275UNK    C0311470  26.268   2.228  10.352  0.3064 -0.0570 -0.8714
 1275UNK    C0411471  26.223   2.317  10.465  0.2163  0.0490 -0.2604
 1275UNK    F0511472  26.241   2.448  10.431 -0.4876 -0.0021 -0.1068
 1275UNK    F0611473  26.089   2.295  10.494  0.2575  0.2472  0.5180
 1275UNK    F0711474  26.290   2.306  10.580  0.1740 -0.2845  0.2310
 1275UNK    H0811475  26.334   2.286  10.289  0.8388 -0.9284 -1.1276
 1276UNK    F0011476  26.723   4.203  10.983  0.3858  0.2298  0.4275
 1276UNK    C0111477  26.784   4.092  11.030 -0.3898  0.1965  0.1469
 1276UNK    H0211478  26.892   4.107  11.021 -0.5421 -0.1347 -2.9344
 1276UNK    C0311479  26.718   4.000  11.098  0.2240 -0.7022  0.5790
 1276UNK    C0411480  26.636   3.905  11.026  0.7367  0.9274 -1.1929
 1276UNK    F0511481  26.583   3.827  11.121  0.2959  0.1318  0.1379
 1276UNK    F0611482  26.542   3.968  10.949 -0.1549 -0.2470 -0.4553
 1276UNK    F0711483  26.709   3.830  10.937  0.4352  0.0557  0.0019
 1276UNK    H0811484  26.685   4.020  11.199 -1.2653 -3.2594  0.6336
 1277UNK    F0011485  28.099   2.879  12.598  0.3055  0.2761  0.1063
 1277UNK    C0111486  28.068   2.998  12.653  0.0756 -0.4499 -0.3071
 1277UNK    H0211487  28.101   2.998  12.757 -0.3575  1.6901 -0.1450
 1277UNK    C0311488  27.981   3.082  12.596 -0.1911 -0.0994  0.3790
 1277UNK    C0411489  27.839   3.055  12.608  0.4562 -1.0398  0.0924
 1277UNK    F0511490  27.790   2.961  12.525  0.0974  0.5600  0.1813
 1277UNK    F0611491  27.797   3.036  12.735  0.2645 -0.3003  0.2401
 1277UNK    F0711492  27.778   3.170  12.574  0.0157 -0.0859 -0.0601
 1277UNK    H0811493  27.990   3.189  12.605 -0.8782 -0.0418  0.4202
 1278UNK    F0011494  25.546   2.132  10.683  0.3204 -0.2441 -0.5565
 1278UNK    C0111495  25.427   2.084  10.723 -1.0292 -0.0506 -0.2025
 1278UNK    H0211496  25.351   2.161  10.737 -1.2861 -0.6208  1.6689
 1278UNK    C0311497  25.403   1.955  10.699 -0.0219 -0.8027 -0.2606
 1278UNK    C0411498  25.272   1.891  10.708 -0.4085 -0.1356  0.4632
 1278UNK    F0511499  25.292   1.758  10.699  0.0769 -0.1241 -0.0605
 1278UNK    F0611500  25.219   1.916  10.832 -0.5365 -0.0282 -0.0338
 1278UNK    F0711501  25.181   1.943  10.625 -0.4340  0.1098  0.5215
 1278UNK    H0811502  25.485   1.887  10.684 -0.9613 -1.6530 -1.6616
 1279UNK    F0011503  25.190   5.203  10.397  0.0796  0.5486 -0.3120
 1279UNK    C0111504  25.266   5.111  10.450  0.3537 -0.2536 -0.5754
 1279UNK    H0211505  25.217   5.057  10.531 -0.7418  2.6227  0.7465
 1279UNK    C0311506  25.395   5.122  10.419 -0.1815  0.2537 -0.0226
 1279UNK    C0411507  25.439   5.121  10.275  0.0431 -0.1417 -0.0959
 1279UNK    F0511508  25.364   5.044  10.189 -0.4341  0.0762 -0.1509
 1279UNK    F0611509  25.462   5.246  10.231 -0.1927 -0.2650 -0.0850
 1279UNK    F0711510  25.557   5.066  10.280  0.3681 -0.2562  0.0161
 1279UNK    H0811511  25.474   5.120  10.493  0.1260  0.0127 -0.3536
 1280UNK    F0011512  23.972   0.655   9.898  0.3807  0.4376  0.2035
 1280UNK    C0111513  24.001   0.786   9.905 -0.7967  0.2387 -0.1224
 1280UNK    H0211514  24.001   0.836   9.808  2.2910 -1.7577 -1.2396
 1280UNK    C0311515  24.000   0.843  10.025  0.3700  0.3908  0.2903
 1280UNK    C0411516  23.950   0.983  10.028 -0.0518 -0.2390 -0.4852
 1280UNK    F0511517  23.972   1.050  10.138 -0.0824  0.6997 -0.0073
 1280UNK    F0611518  23.994   1.057   9.927  0.2678  0.1841  0.3151
 1280UNK    F0711519  23.814   0.980  10.023  0.0783  0.1789  0.9933
 1280UNK    H0811520  24.088   0.831  10.086 -0.7104  0.7823  1.9621
 1281UNK    F0011521  26.364   3.207   9.309  0.7094  0.5611  0.2318
 1281UNK    C0111522  26.346   3.191   9.446 -0.6134 -0.6735 -0.2367
 1281UNK    H0211523  26.411   3.113   9.485 -0.5953 -0.4336  0.2191
 1281UNK    C0311524  26.240   3.248   9.497  0.4449  0.1674 -0.0704
 1281UNK    C0411525  26.110   3.213   9.437 -0.2001 -0.6027  0.1863
 1281UNK    F0511526  26.062   3.091   9.472 -0.1046 -0.4149 -0.4114
 1281UNK    F0611527  26.025   3.309   9.485  0.2032  0.1147  0.3323
 1281UNK    F0711528  26.097   3.229   9.303 -0.3619 -0.8056  0.0774
 1281UNK    H0811529  26.238   3.238   9.605 -0.1402 -0.7167 -0.1595
 1282UNK    F0011530  26.937   1.782  11.295 -0.1235  0.1734  0.0220
 1282UNK    C0111531  26.891   1.893  11.361 -0.2233  0.5073 -0.1218
 1282UNK    H0211532  26.783   1.906  11.353 -0.2551  1.2342  1.2964
 1282UNK    C0311533  26.967   1.996  11.378 -0.1494  0.2077  0.1150
 1282UNK    C0411534  26.948   2.104  11.477 -0.2063  0.1288  0.3801
 1282UNK    F0511535  26.817   2.140  11.469 -0.3257 -0.1096 -0.2687
 1282UNK    F0611536  26.964   2.068  11.603 -0.2872  0.2468 -0.3799
 1282UNK    F0711537  27.034   2.208  11.452  0.3642 -0.2760  0.6530
 1282UNK    H0811538  27.069   1.973  11.351 -0.6061  1.3987 -2.8447
 1283UNK    F0011539  26.481   2.004   9.804 -0.0337  0.1756  0.1452
 1283UNK    C0111540  26.477   2.039   9.933 -0.0697  0.3956  0.7461
 1283UNK    H0211541  26.415   1.963   9.982 -0.4484  0.4319  0.3217
 1283UNK    C0311542  26.576   2.097   9.990  0.0736 -0.1482 -0.1398
 1283UNK    C0411543  26.639   2.055  10.115  1.4012 -0.4559  0.3481
 1283UNK    F0511544  26.665   1.922  10.106 -0.3737 -0.7385 -0.1923
 1283UNK    F0611545  26.755   2.119  10.150  0.3402  0.7084 -0.0862
 1283UNK    F0711546  26.560   2.077  10.219  0.7231  0.4439 -0.2343
 1283UNK    H0811547  26.645   2.133   9.914 -0.7284  3.3766  0.6910
 1284UNK    F0011548  28.944   2.264   9.327  0.3492 -0.2481 -0.1335
 1284UNK    C0111549  28.874   2.327   9.416  0.2920 -0.1645  0.0113
 1284UNK    H0211550  28.940   2.353   9.499  1.9023 -1.5396 -0.8211
 1284UNK    C0311551  28.742   2.314   9.426 -0.0941 -0.4685  0.2927
 1284UNK    C0411552  28.661   2.333   9.547  0.6788 -0.2349 -0.5375
 1284UNK    F0511553  28.528   2.331   9.526  0.2553 -0.1060 -0.0954
 1284UNK    F0611554  28.665   2.217   9.623 -0.6607 -0.3351 -0.4902
 1284UNK    F0711555  28.689   2.446   9.609  0.2528 -0.0573  0.4071
 1284UNK    H0811556  28.697   2.252   9.350 -0.0710 -3.1518  2.3814
 1285UNK    F0011557  24.763   1.254  10.776  0.1264 -0.6485 -0.2262
 1285UNK    C0111558  24.816   1.147  10.844  0.9078 -0.1469  1.1347
 1285UNK    H0211559  24.850   1.075  10.770  0.4935  0.1771  0.6273
 1285UNK    C0311560  24.791   1.128  10.973 -0.4745 -0.6072  0.1231
 1285UNK    C0411561  24.850   1.028  11.064 -0.2259 -0.0183  0.7637
 1285UNK    F0511562  24.975   1.075  11.081  0.3496 -0.2261 -0.7692
 1285UNK    F0611563  24.789   1.016  11.184  0.1690  0.0219 -0.4976
 1285UNK    F0711564  24.878   0.908  11.010  0.2280  0.2957  0.7339
 1285UNK    H0811565  24.746   1.211  11.025 -0.7457  0.4520 -1.7434
 1286UNK    F0011566  25.614   4.322  11.063  0.0718  0.2591  0.1218
 1286UNK    C0111567  25.555   4.282  10.953  0.7217  0.3366  0.1615
 1286UNK    H0211568  25.449   4.301  10.970  0.3447 -1.5104  0.0401
 1286UNK    C0311569  25.609   4.184  10.878  0.9361 -0.0155  0.3196
 1286UNK    C0411570  25.559   4.144  10.748  0.3196 -0.5756  0.4359
 1286UNK    F0511571  25.595   4.240  10.657 -0.0761 -0.0626 -0.0139
 1286UNK    F0611572  25.615   4.029  10.711 -0.5095 -0.0825 -0.2314
 1286UNK    F0711573  25.425   4.133  10.743 -0.2262 -0.2359  0.3833
 1286UNK    H0811574  25.706   4.143  10.900  0.4815 -1.3420 -0.0930
 1287UNK    F0011575  24.594   4.117  11.059 -0.0688  0.5488 -0.7157
 1287UNK    C0111576  24.673   4.018  11.019 -0.7692 -0.1377  0.0978
 1287UNK    H0211577  24.640   3.920  11.055  1.9484 -1.6571 -1.3388
 1287UNK    C0311578  24.805   4.044  11.014 -0.0265 -0.6629  0.3946
 1287UNK    C0411579  24.916   3.975  10.942 -0.3282 -0.1915  0.1571
 1287UNK    F0511580  25.043   4.015  10.978  0.0047 -0.6344 -0.2666
 1287UNK    F0611581  24.899   3.851  10.970 -0.1702  0.1891  0.2051
 1287UNK    F0711582  24.895   3.968  10.808 -0.0165 -0.2525 -0.5664
 1287UNK    H0811583  24.830   4.148  11.032 -0.9261 -0.5476  0.9946
 1288UNK    F0011584  28.741   2.026   9.922  0.1090  0.5624 -0.0459
 1288UNK    C0111585  28.631   1.978   9.869  0.6018 -0.1040  0.3799
 1288UNK    H0211586  28.599   2.035   9.782  1.2797 -1.1224 -0.5398
 1288UNK    C0311587  28.564   1.874   9.934 -0.3873 -0.2522 -0.7279
 1288UNK    C0411588  28.483   1.779   9.853 -0.6505 -0.2731 -0.2595
 1288UNK    F0511589  28.403   1.701   9.927 -0.2095  0.6885  0.5031
 1288UNK    F0611590  28.409   1.854   9.765  0.0801  0.1234  1.6194
 1288UNK    F0711591  28.567   1.710   9.772  0.1052 -0.1726  0.3749
 1288UNK    H0811592  28.609   1.828  10.020 -2.7141 -0.0685  0.6096
 1289UNK    F0011593  25.069   2.685  10.396  0.5677 -0.6757  0.7719
 1289UNK    C0111594  25.090   2.574  10.462 -0.2171 -0.2250  0.5658
 1289UNK    H0211595  25.161   2.505  10.416 -0.1853 -0.1775  0.5435
 1289UNK    C0311596  25.047   2.554  10.593 -0.2835 -0.3823  0.4408
 1289UNK    C0411597  25.047   2.416  10.653 -0.0150  0.1465 -0.1360
 1289UNK    F0511598  24.942   2.413  10.739  0.0819 -0.1001  0.2054
 1289UNK    F0611599  25.046   2.310  10.559  0.4236  0.0124  0.1575
 1289UNK    F0711600  25.156   2.391  10.732 -0.5637 -0.0513 -0.4998
 1289UNK    H0811601  24.972   2.620  10.634  0.8198  1.2952 -0.1865
 1290UNK    F0011602  26.722   1.619  11.731  0.4052 -0.6093 -0.0890
 1290UNK    C0111603  26.593   1.597  11.753 -0.5909  0.5182  0.3946
 1290UNK    H0211604  26.585   1.567  11.858 -1.9571  1.4605  0.5717
 1290UNK    C0311605  26.497   1.663  11.687 -0.5312  0.0728 -0.0793
 1290UNK    C0411606  26.449   1.627  11.556 -0.2435  0.1412  0.8767
 1290UNK    F0511607  26.391   1.503  11.550 -0.2073 -0.6521 -0.2681
 1290UNK    F0611608  26.347   1.705  11.514 -0.2836 -0.1104  0.0140
 1290UNK    F0711609  26.540   1.622  11.455  0.2779 -0.4497 -0.0625
 1290UNK    H0811610  26.441   1.741  11.737 -0.2421 -0.5988  1.3046
 1291UNK    F0011611  27.386   1.339  10.007  0.5057 -0.2879  0.7234
 1291UNK    C0111612  27.458   1.451  10.012  0.1978  0.2871  0.2867
 1291UNK    H0211613  27.540   1.444   9.941 -0.9195 -1.9933 -0.8175
 1291UNK    C0311614  27.416   1.561  10.075  0.1397  0.0198  0.3235
 1291UNK    C0411615  27.448   1.701  10.043 -0.6368 -0.3020  0.0516
 1291UNK    F0511616  27.384   1.729   9.923  0.1091 -0.2591  0.1490
 1291UNK    F0611617  27.399   1.784  10.139  0.1219  0.0507  0.3741
 1291UNK    F0711618  27.575   1.729  10.011 -0.1721  0.2252 -0.0959
 1291UNK    H0811619  27.399   1.547  10.180 -2.0461  3.6518  0.5522
 1292UNK    F0011620  26.845   3.618  11.116  0.0664 -0.4084 -0.3193
 1292UNK    C0111621  26.929   3.517  11.127 -0.4054 -0.1888 -0.3345
 1292UNK    H0211622  26.895   3.453  11.209  0.5433  0.8527  0.8902
 1292UNK    C0311623  27.052   3.551  11.092  0.8571  0.0492 -0.2102
 1292UNK    C0411624  27.156   3.609  11.181  0.1331 -0.1974  0.3394
 1292UNK    F0511625  27.218   3.517  11.264  0.2296  0.3190 -0.1921
 1292UNK    F0611626  27.261   3.646  11.107 -0.1557 -0.6917  0.1340
 1292UNK    F0711627  27.107   3.720  11.244  0.1246 -0.1416  0.7262
 1292UNK    H0811628  27.090   3.524  10.995 -0.7937  0.2989 -0.9438
 1293UNK    F0011629  25.498   3.861   9.197  0.8659  0.7743 -0.0477
 1293UNK    C0111630  25.597   3.854   9.286 -0.1230  0.8409 -0.8322
 1293UNK    H0211631  25.687   3.910   9.261 -0.9746  1.7000 -2.0449
 1293UNK    C0311632  25.578   3.819   9.411 -0.3112  0.1347 -0.1709
 1293UNK    C0411633  25.559   3.685   9.465 -0.2287 -0.3250 -0.7561
 1293UNK    F0511634  25.480   3.687   9.582 -1.0650  0.4266  0.2153
 1293UNK    F0611635  25.475   3.613   9.385 -0.0153 -0.0935  0.4572
 1293UNK    F0711636  25.679   3.613   9.469 -0.0836 -0.0465 -0.1107
 1293UNK    H0811637  25.584   3.898   9.485  0.7683  1.4967 -1.6878
 1294UNK    F0011638  24.672   0.346   1.108 -0.3368 -0.2990 -0.4462
 1294UNK    C0111639  24.782   0.413   1.148 -0.2369 -0.3851  0.0654
 1294UNK    H0211640  24.834   0.471   1.072 -0.5236  0.6880  0.6927
 1294UNK    C0311641  24.814   0.386   1.275  0.0455  0.4131  1.0503
 1294UNK    C0411642  24.889   0.481   1.362  0.3957 -0.3469  0.0247
 1294UNK    F0511643  24.998   0.527   1.292  0.0236 -0.0781  0.0307
 1294UNK    F0611644  24.809   0.588   1.382 -0.2711 -0.0758  0.4450
 1294UNK    F0711645  24.920   0.408   1.469 -0.0004  0.0787  0.2618
 1294UNK    H0811646  24.780   0.296   1.323  1.8479 -0.7545  0.1705
 1295UNK    F0011647  28.763   0.150   9.517  0.1158  0.2417  0.0600
 1295UNK    C0111648  28.887   0.155   9.556 -0.0560  0.4218 -0.5051
 1295UNK    H0211649  28.957   0.126   9.478 -0.5042 -1.9100 -0.0611
 1295UNK    C0311650  28.912   0.148   9.685  0.0177  0.5143  0.3243
 1295UNK    C0411651  28.895   0.026   9.766 -0.2083  0.3557 -0.3202
 1295UNK    F0511652  28.996  -0.059   9.746 -0.0310 -0.0969 -0.5284
 1295UNK    F0611653  28.888   0.070   9.893  0.2084  0.3543 -0.1398
 1295UNK    F0711654  28.774  -0.037   9.737 -0.3192  0.5335 -0.2259
 1295UNK    H0811655  28.996   0.208   9.718  0.4739  0.6357 -1.0069
 1296UNK    F0011656  27.303   0.017  10.266  0.4064  0.0444 -0.0250
 1296UNK    C0111657  27.423  -0.029  10.228  0.2140 -0.0958  0.3509
 1296UNK    H0211658  27.446  -0.131  10.257 -1.6120 -0.3687  0.8953
 1296UNK    C0311659  27.496   0.045  10.138  0.4686  0.3720  0.1848
 1296UNK    C0411660  27.643   0.022  10.113 -0.1270  0.5932 -0.7337
 1296UNK    F0511661  27.710  -0.008  10.224 -0.9075  0.5780  0.6532
 1296UNK    F0611662  27.678  -0.074  10.026  0.3439  0.1553 -0.5266
 1296UNK    F0711663  27.713   0.135  10.071 -0.3934 -0.5070 -0.1749
 1296UNK    H0811664  27.449   0.137  10.106 -1.9739 -1.0979 -0.5421
 1297UNK    F0011665  26.215   4.306   8.841  0.5075 -0.2127 -0.0396
 1297UNK    C0111666  26.289   4.244   8.931 -0.5163  0.7813  0.7153
 1297UNK    H0211667  26.271   4.136   8.937 -1.0225  0.7540 -1.0436
 1297UNK    C0311668  26.401   4.312   8.952 -0.5721 -0.4088 -0.2560
 1297UNK    C0411669  26.527   4.249   8.992  0.5562 -0.4105  0.8369
 1297UNK    F0511670  26.504   4.149   9.077  0.1800  0.0033  0.1240
 1297UNK    F0611671  26.610   4.202   8.898 -0.1325 -0.4371  0.0383
 1297UNK    F0711672  26.616   4.330   9.063 -0.3895 -0.1316  0.0582
 1297UNK    H0811673  26.411   4.413   8.915 -2.9707 -0.0360  0.0266
 1298UNK    F0011674  14.762   4.028   3.328  0.0760  0.5277 -0.1679
 1298UNK    C0111675  14.705   3.920   3.279 -0.2690  0.0869 -0.0644
 1298UNK    H0211676  14.637   3.874   3.351 -0.9269  0.3744 -0.4954
 1298UNK    C0311677  14.786   3.846   3.202 -1.0856 -1.3828 -0.3122
 1298UNK    C0411678  14.717   3.757   3.103  0.0377 -0.0852  0.9109
 1298UNK    F0511679  14.621   3.680   3.148 -0.1333  0.2004  0.0980
 1298UNK    F0611680  14.641   3.828   3.017  0.6677 -0.1544  0.0141
 1298UNK    F0711681  14.798   3.675   3.037 -0.4271 -0.1969  0.5358
 1298UNK    H0811682  14.893   3.835   3.214 -1.3720 -2.9066  1.0716
 1299UNK    F0011683  26.341   3.279  11.263  0.3484  0.3261 -0.1337
 1299UNK    C0111684  26.378   3.231  11.383  0.3817 -0.1024  0.8675
 1299UNK    H0211685  26.306   3.255  11.462  0.1939 -0.5148  0.8196
 1299UNK    C0311686  26.473   3.138  11.398 -0.5033  0.2487 -0.1397
 1299UNK    C0411687  26.612   3.168  11.451  0.2116  0.0646  0.1945
 1299UNK    F0511688  26.668   3.281  11.403 -0.4256 -0.4200 -0.3495
 1299UNK    F0611689  26.598   3.195  11.583 -0.4207  0.1693 -0.6888
 1299UNK    F0711690  26.699   3.060  11.444  0.1491 -0.5477 -0.5466
 1299UNK    H0811691  26.481   3.064  11.319 -0.0450  0.7537 -0.5756
 1300UNK    F0011692  24.897   1.420  10.287  0.3354  0.0105 -0.0274
 1300UNK    C0111693  24.895   1.294  10.331  0.8925  0.3803 -0.8552
 1300UNK    H0211694  24.994   1.280  10.374  1.1330  2.3881 -0.7367
 1300UNK    C0311695  24.799   1.206  10.332 -0.1340  0.2967 -0.4252
 1300UNK    C0411696  24.755   1.123  10.443  0.2566 -0.0707 -0.2869
 1300UNK    F0511697  24.851   1.048  10.491  0.1637  0.1133  0.2743
 1300UNK    F0611698  24.693   1.185  10.545  0.3934 -0.0670 -0.7118
 1300UNK    F0711699  24.658   1.048  10.383 -0.3642  0.6296  0.3210
 1300UNK    H0811700  24.718   1.222  10.261  0.7048  1.5858 -1.1101
 1301UNK    F0011701  26.156   1.933  10.643 -0.1504  0.0738  0.3847
 1301UNK    C0111702  26.282   1.923  10.688  0.0822 -0.1433 -0.0872
 1301UNK    H0211703  26.297   1.838  10.755  1.0930 -0.8639 -1.2254
 1301UNK    C0311704  26.358   2.030  10.702 -0.4613 -0.1531  0.0737
 1301UNK    C0411705  26.380   2.086  10.833 -0.0994 -0.0719 -0.0395
 1301UNK    F0511706  26.470   2.194  10.831 -0.2055  0.4721 -0.2662
 1301UNK    F0611707  26.269   2.124  10.899  0.7443  0.3844 -0.1837
 1301UNK    F0711708  26.437   1.992  10.911 -0.0030  0.3196  0.0160
 1301UNK    H0811709  26.378   2.091  10.615 -2.3956 -2.1197 -1.8033
 1302UNK    F0011710  26.978   3.600   8.859 -0.3636  0.2786  0.7123
 1302UNK    C0111711  27.037   3.477   8.857 -0.0780  0.5569  0.4248
 1302UNK    H0211712  27.035   3.449   8.752  0.2619 -0.6978  0.7534
 1302UNK    C0311713  27.136   3.456   8.943 -0.8017  0.2782  0.4846
 1302UNK    C0411714  27.107   3.399   9.072  0.0492  0.4269  0.5966
 1302UNK    F0511715  27.100   3.268   9.061 -0.1147  0.0808  0.0066
 1302UNK    F0611716  27.211   3.429   9.157 -0.3000 -0.0839 -0.0856
 1302UNK    F0711717  26.988   3.449   9.117  0.1884  0.1728 -0.0476
 1302UNK    H0811718  27.237   3.484   8.915 -0.5738 -0.6383  0.3979
 1303UNK    F0011719  26.855   4.361  10.072 -0.2578 -0.6645  0.5720
 1303UNK    C0111720  26.749   4.363  10.145 -0.2052 -0.8312  0.0203
 1303UNK    H0211721  26.777   4.329  10.245  0.4015 -0.6607 -0.0929
 1303UNK    C0311722  26.642   4.435  10.122 -0.0418  0.1603  0.1632
 1303UNK    C0411723  26.629   4.573  10.069  0.2222  0.1197 -0.5178
 1303UNK    F0511724  26.501   4.606  10.100 -0.0864  0.0415 -0.1413
 1303UNK    F0611725  26.720   4.660  10.129 -0.1412  0.3248 -0.4497
 1303UNK    F0711726  26.635   4.576   9.937  0.5291 -0.5734 -0.1141
 1303UNK    H0811727  26.545   4.407  10.160 -1.1892  3.4032 -0.2138
 1304UNK    F0011728  26.683   3.167  10.693  0.1953  0.0873  0.4257
 1304UNK    C0111729  26.608   3.108  10.606 -0.1154 -0.0743 -0.0232
 1304UNK    H0211730  26.504   3.094  10.635 -0.0793  1.9389  1.2544
 1304UNK    C0311731  26.669   3.050  10.502  0.8367  0.2074  0.2751
 1304UNK    C0411732  26.733   2.920  10.517  0.8988  0.5111  0.1882
 1304UNK    F0511733  26.802   2.894  10.404 -0.1562  0.0065 -0.0198
 1304UNK    F0611734  26.822   2.925  10.616  0.4809  0.3792 -0.2118
 1304UNK    F0711735  26.647   2.817  10.522 -0.2475  0.2799 -0.3495
 1304UNK    H0811736  26.720   3.104  10.424  0.9021 -0.2141  0.0218
 1305UNK    F0011737  28.829   1.051  10.491  0.0174  0.1110  0.4307
 1305UNK    C0111738  28.882   0.953  10.414 -0.2337  0.1705  0.3949
 1305UNK    H0211739  28.916   0.870  10.476 -1.0487 -0.6651 -0.2746
 1305UNK    C0311740  28.900   0.963  10.285 -0.6884 -0.5085  1.1000
 1305UNK    C0411741  29.003   1.050  10.221 -0.2242 -0.4075  0.2592
 1305UNK    F0511742  29.131   0.998  10.220 -0.5239 -0.2621  0.0193
 1305UNK    F0611743  28.963   1.082  10.099  0.5690 -0.1341  0.2880
 1305UNK    F0711744  29.010   1.162  10.291 -0.3549  0.3205  0.0489
 1305UNK    H0811745  28.842   0.901  10.218 -0.5639 -0.2733  0.7734
 1306UNK    F0011746  29.562   2.549   4.673 -0.1570 -0.1967  0.5224
 1306UNK    C0111747  29.564   2.672   4.615  0.1891 -0.1280 -0.5301
 1306UNK    H0211748  29.576   2.747   4.693  1.8471  0.2673 -1.1391
 1306UNK    C0311749  29.513   2.688   4.495  0.7686 -0.2982 -0.5599
 1306UNK    C0411750  29.561   2.792   4.396  0.5677 -0.5263  0.4458
 1306UNK    F0511751  29.683   2.751   4.360 -0.5628  0.1612  0.1772
 1306UNK    F0611752  29.477   2.788   4.288  0.0963  0.3026 -0.2351
 1306UNK    F0711753  29.564   2.922   4.443 -0.2162  0.4980  0.2992
 1306UNK    H0811754  29.467   2.601   4.451  1.7894 -0.5541 -1.1547
 1307UNK    F0011755  28.285   2.367  10.093 -0.2967 -0.4528 -0.9412
 1307UNK    C0111756  28.165   2.385  10.046  0.1747 -1.1074 -0.3357
 1307UNK    H0211757  28.129   2.295   9.996 -0.3450 -0.6865 -0.7119
 1307UNK    C0311758  28.137   2.512  10.004  0.3547  0.0277 -0.3104
 1307UNK    C0411759  28.007   2.572   9.979  0.0527  0.2735 -0.1453
 1307UNK    F0511760  27.912   2.485   9.926  0.0556  0.2729  0.2238
 1307UNK    F0611761  27.960   2.629  10.087 -0.3376  0.1835  0.0183
 1307UNK    F0711762  28.010   2.673   9.887  0.2296  0.0855 -0.2408
 1307UNK    H0811763  28.215   2.582  10.032  1.8740 -2.0473  0.8049
 1308UNK    F0011764  27.275   1.436  10.774  0.0511 -0.6962  0.4438
 1308UNK    C0111765  27.333   1.332  10.720  0.1713  0.6161 -0.3480
 1308UNK    H0211766  27.404   1.286  10.788  1.3259  1.2123 -1.1377
 1308UNK    C0311767  27.318   1.313  10.591 -0.1270 -0.9301 -0.0623
 1308UNK    C0411768  27.378   1.404  10.500  0.9078  0.3653  0.9392
 1308UNK    F0511769  27.342   1.533  10.526 -0.5899 -0.0691 -0.8715
 1308UNK    F0611770  27.510   1.399  10.517  0.8288  0.3779 -0.5675
 1308UNK    F0711771  27.345   1.381  10.368 -0.1289 -0.7990  0.1679
 1308UNK    H0811772  27.232   1.259  10.554 -2.5339  0.7934  2.7465
 1309UNK    F0011773  26.106   4.001   8.531  0.3828  0.0082 -0.1718
 1309UNK    C0111774  26.133   3.875   8.567  0.4612 -0.0429 -0.2138
 1309UNK    H0211775  26.139   3.796   8.492  0.5881 -1.1727  0.9725
 1309UNK    C0311776  26.134   3.849   8.699  0.1365  0.7407 -0.4702
 1309UNK    C0411777  26.215   3.735   8.743  0.0990 -0.2514 -0.8778
 1309UNK    F0511778  26.195   3.713   8.870  0.1205  0.1716  0.1551
 1309UNK    F0611779  26.171   3.627   8.681  0.4804 -0.1825  0.0851
 1309UNK    F0711780  26.347   3.757   8.720 -0.1520  0.6831 -0.1316
 1309UNK    H0811781  26.052   3.880   8.761 -0.3307  0.2293 -0.8313
 1310UNK    F0011782  26.306   3.686  10.487  0.6565  0.3435 -0.0706
 1310UNK    C0111783  26.313   3.790  10.406  0.3835  0.9241  0.3210
 1310UNK    H0211784  26.245   3.867  10.442  0.6890  0.8951  0.9527
 1310UNK    C0311785  26.407   3.793  10.314  0.1324  0.2640  0.5725
 1310UNK    C0411786  26.447   3.902  10.233 -0.0459 -0.5253 -0.1071
 1310UNK    F0511787  26.541   3.874  10.140  0.2513 -0.1031 -0.4172
 1310UNK    F0611788  26.339   3.946  10.167  0.4285 -0.5479  0.3248
 1310UNK    F0711789  26.491   4.004  10.307  0.2761  0.0153 -0.4462
 1310UNK    H0811790  26.449   3.700  10.278 -0.1847  0.0347  0.8012
 1311UNK    F0011791  25.243   3.746  10.744 -0.3001  0.2527  0.3796
 1311UNK    C0111792  25.132   3.695  10.694  0.4608  0.6021 -0.0106
 1311UNK    H0211793  25.145   3.673  10.588  0.6311 -2.3227  0.5697
 1311UNK    C0311794  25.050   3.637  10.779  0.0023  0.7841 -0.2044
 1311UNK    C0411795  24.933   3.552  10.752  0.1555  0.2663 -0.3187
 1311UNK    F0511796  24.845   3.626  10.679 -0.0105  0.6782 -0.5568
 1311UNK    F0611797  24.961   3.436  10.679  0.1292  0.4936 -0.0871
 1311UNK    F0711798  24.856   3.510  10.853 -0.1503  0.0783  0.1456
 1311UNK    H0811799  25.072   3.648  10.884 -0.6264  0.9475 -0.0905
 1312UNK    F0011800  26.412   2.914   9.653 -0.1484  0.4730  0.1934
 1312UNK    C0111801  26.313   2.867   9.731  0.2271  0.3890 -0.2219
 1312UNK    H0211802  26.349   2.818   9.822  3.2516  1.6783 -0.6751
 1312UNK    C0311803  26.190   2.883   9.685  0.3535  0.2226 -0.7368
 1312UNK    C0411804  26.065   2.877   9.761 -0.0271  0.5153 -0.3957
 1312UNK    F0511805  25.976   2.831   9.674  0.1562  0.1037 -0.3657
 1312UNK    F0611806  26.073   2.791   9.865 -0.5380  0.5404 -0.3265
 1312UNK    F0711807  26.032   2.992   9.817 -0.0419  0.1573  0.4658
 1312UNK    H0811808  26.181   2.943   9.596  0.6299  0.7942 -0.3837
 1313UNK    F0011809  27.804   3.830  10.899  0.0996  0.0358 -0.1666
 1313UNK    C0111810  27.753   3.934  10.838 -0.5180 -0.4598  0.5293
 1313UNK    H0211811  27.805   4.025  10.869 -0.8914  0.0433 -0.2911
 1313UNK    C0311812  27.649   3.917  10.766 -0.0372  0.6189 -0.3329
 1313UNK    C0411813  27.614   4.007  10.653 -0.3289 -0.0701  0.3083
 1313UNK    F0511814  27.483   4.006  10.617 -0.4412  0.1241 -0.1950
 1313UNK    F0611815  27.643   4.137  10.666 -0.3973 -0.1479 -0.1550
 1313UNK    F0711816  27.680   3.954  10.547 -0.0831 -0.6565  0.0903
 1313UNK    H0811817  27.559   3.869  10.801  0.0388  0.0500 -0.9031
 1314UNK    F0011818  27.635   4.849   9.825  0.3979 -0.5287  0.3083
 1314UNK    C0111819  27.518   4.899   9.787 -0.3084  0.6652  0.7650
 1314UNK    H0211820  27.530   4.974   9.709  3.3494  0.1292  0.7485
 1314UNK    C0311821  27.410   4.865   9.859 -0.2972 -0.3128  0.8819
 1314UNK    C0411822  27.389   4.930   9.995 -0.1057  0.8495  0.3356
 1314UNK    F0511823  27.364   5.058   9.972 -0.0734 -0.3877 -0.4632
 1314UNK    F0611824  27.283   4.876  10.067 -0.2732  0.6647  0.0293
 1314UNK    F0711825  27.495   4.912  10.075  0.2416  0.4757 -0.7216
 1314UNK    H0811826  27.326   4.815   9.813  0.3081 -1.0311  0.5706
 1315UNK    F0011827  28.971   0.698  10.264 -0.7320  0.1653 -0.1672
 1315UNK    C0111828  28.933   0.607  10.177  0.0255  0.7678  0.1584
 1315UNK    H0211829  28.892   0.523  10.234 -0.0085  0.1832 -0.7180
 1315UNK    C0311830  28.980   0.631  10.054  0.4026 -0.1246  0.0084
 1315UNK    C0411831  28.939   0.557   9.931  0.5108  0.1799 -0.3689
 1315UNK    F0511832  28.966   0.423   9.923 -0.1290 -0.1707  0.0756
 1315UNK    F0611833  28.802   0.547   9.917 -0.2830  0.3670  0.3253
 1315UNK    F0711834  28.996   0.611   9.821  0.3741  0.1449  0.0240
 1315UNK    H0811835  29.069   0.691  10.040 -0.1839  0.6239 -0.5755
 1316UNK    F0011836  28.917   2.006   9.370 -0.2257  0.1982 -0.0705
 1316UNK    C0111837  28.865   1.882   9.378  0.3372 -0.1207 -0.0574
 1316UNK    H0211838  28.921   1.804   9.326  0.2404 -0.9530  1.0608
 1316UNK    C0311839  28.753   1.857   9.452  0.2669 -0.3497  0.3520
 1316UNK    C0411840  28.616   1.874   9.396  0.1707  1.1385 -0.0356
 1316UNK    F0511841  28.600   2.001   9.359 -0.3609 -0.0068 -0.3741
 1316UNK    F0611842  28.609   1.780   9.301 -0.5571 -0.1205 -0.1812
 1316UNK    F0711843  28.525   1.837   9.490  0.1573  0.4822 -0.4062
 1316UNK    H0811844  28.747   1.862   9.560 -0.7745 -0.5956  0.3147
 1317UNK    F0011845  25.093   3.257  10.793 -0.1658 -0.0580 -0.0210
 1317UNK    C0111846  25.160   3.209  10.900 -0.3948 -0.7449 -0.1488
 1317UNK    H0211847  25.226   3.281  10.948  0.9818  0.3527 -3.5550
 1317UNK    C0311848  25.157   3.081  10.922  1.1726 -0.8321 -0.2705
 1317UNK    C0411849  25.230   2.981  10.846 -0.6067  0.0067  0.0443
 1317UNK    F0511850  25.350   2.956  10.904 -0.3994 -0.0635  0.1425
 1317UNK    F0611851  25.159   2.866  10.843  0.1752  0.3162  0.5592
 1317UNK    F0711852  25.249   3.019  10.717  0.0689 -0.2536 -0.3415
 1317UNK    H0811853  25.090   3.041  10.997  0.5501  1.7429  0.5840
 1318UNK    F0011854  29.406   1.422   9.223 -0.0919 -0.3484 -0.6247
 1318UNK    C0111855  29.333   1.411   9.333 -0.2187 -0.0337  0.4866
 1318UNK    H0211856  29.335   1.302   9.343  1.3637 -0.2980 -2.1417
 1318UNK    C0311857  29.229   1.497   9.327  0.1978 -0.3222 -0.4293
 1318UNK    C0411858  29.150   1.531   9.452 -0.6522  0.1157  0.2353
 1318UNK    F0511859  29.151   1.430   9.536  0.6005 -0.5484  0.4365
 1318UNK    F0611860  29.204   1.630   9.526 -0.1764 -0.1168 -0.1147
 1318UNK    F0711861  29.030   1.564   9.417  0.9572  0.0358  0.3684
 1318UNK    H0811862  29.240   1.582   9.262 -0.4040  0.2807  0.2370
 1319UNK    F0011863  27.144   3.626  10.788  0.3304 -0.0232 -0.0982
 1319UNK    C0111864  27.081   3.582  10.679  0.3557 -0.4703  0.4202
 1319UNK    H0211865  27.110   3.480  10.653 -0.4036 -0.1562 -1.8745
 1319UNK    C0311866  26.998   3.667  10.627 -0.4594 -0.1753  0.0667
 1319UNK    C0411867  27.019   3.731  10.499 -0.7435  0.2099  0.3009
 1319UNK    F0511868  26.978   3.652  10.400  0.5267 -0.2719  0.1097
 1319UNK    F0611869  26.958   3.850  10.486  0.3369  0.0558  0.0501
 1319UNK    F0711870  27.150   3.753  10.469  0.1157  0.8354  0.5641
 1319UNK    H0811871  26.897   3.669  10.665  0.3628 -0.0751  2.3490
 1320UNK    F0011872  28.003   0.566  10.506 -0.0703 -0.2297 -0.3286
 1320UNK    C0111873  27.947   0.608  10.620  0.0041  0.1288  0.0587
 1320UNK    H0211874  27.839   0.608  10.631  0.1134 -0.4936  1.2002
 1320UNK    C0311875  28.023   0.669  10.710 -0.7134 -0.4908 -0.0728
 1320UNK    C0411876  27.996   0.805  10.760  0.0845 -0.3291  0.2101
 1320UNK    F0511877  28.029   0.813  10.891 -0.1279 -0.0348  0.2027
 1320UNK    F0611878  28.080   0.894  10.699  0.0335 -0.0115 -0.8118
 1320UNK    F0711879  27.867   0.848  10.739 -0.2138  0.3390  0.1587
 1320UNK    H0811880  28.109   0.623  10.756 -1.5610 -0.5129  1.5378
 1321UNK    F0011881  23.752   0.919   9.472  0.0475 -0.1607  0.4415
 1321UNK    C0111882  23.731   0.919   9.340 -0.6394 -0.3160 -0.0196
 1321UNK    H0211883  23.817   0.908   9.274 -0.7891  1.6082 -0.5710
 1321UNK    C0311884  23.616   0.957   9.290  0.0858  0.0594 -0.5591
 1321UNK    C0411885  23.626   1.028   9.164 -0.0636  0.3852  0.3839
 1321UNK    F0511886  23.578   0.942   9.073 -0.4364  0.3443 -0.0136
 1321UNK    F0611887  23.556   1.142   9.171  0.1865  0.3068 -0.6452
 1321UNK    F0711888  23.752   1.055   9.121  0.2170 -0.0603 -0.1570
 1321UNK    H0811889  23.543   1.002   9.355 -1.6658 -1.6341 -1.3017
 1322UNK    F0011890  25.589   2.364  11.216  0.1752  0.5306  0.0293
 1322UNK    C0111891  25.481   2.292  11.254 -0.7495  0.3111  0.6405
 1322UNK    H0211892  25.484   2.266  11.360 -1.3927 -1.4925  0.2303
 1322UNK    C0311893  25.367   2.309  11.186  0.3904  1.1012 -0.3929
 1322UNK    C0411894  25.337   2.231  11.061 -0.0183  0.1927  0.3513
 1322UNK    F0511895  25.244   2.307  10.998  0.4606  0.5599  0.3508
 1322UNK    F0611896  25.441   2.223  10.971  0.1834  0.3001  0.4343
 1322UNK    F0711897  25.289   2.108  11.082 -0.6375 -0.3787 -0.2598
 1322UNK    H0811898  25.293   2.384  11.206 -2.7412 -0.7445 -4.2702
 1323UNK    F0011899  26.801   1.854  10.399  0.1594 -0.5612 -0.2060
 1323UNK    C0111900  26.735   1.953  10.460 -0.1046  0.3436 -0.8491
 1323UNK    H0211901  26.629   1.935  10.442 -0.4030  0.7675  0.4276
 1323UNK    C0311902  26.796   2.066  10.460  0.8526  0.5059  0.1804
 1323UNK    C0411903  26.747   2.189  10.522 -0.6762  0.4334 -0.0456
 1323UNK    F0511904  26.615   2.201  10.526  0.6406  0.4249 -0.0951
 1323UNK    F0611905  26.794   2.191  10.646 -0.3265 -0.2689 -0.0642
 1323UNK    F0711906  26.797   2.297  10.461 -0.2060  0.1035  0.0088
 1323UNK    H0811907  26.904   2.064  10.449  0.9750  0.7823  1.2543
 1324UNK    F0011908  22.571   3.865   9.724  0.5640 -0.0510  0.5026
 1324UNK    C0111909  22.555   3.975   9.641 -0.1868  0.3499  0.3045
 1324UNK    H0211910  22.653   4.015   9.617 -0.5666  0.0788 -1.7532
 1324UNK    C0311911  22.445   3.965   9.565 -0.3327 -0.8847 -0.2816
 1324UNK    C0411912  22.416   4.027   9.435 -0.8135  0.1121  0.1107
 1324UNK    F0511913  22.474   3.954   9.335  0.2757 -0.0283 -0.1574
 1324UNK    F0611914  22.284   4.030   9.414 -0.1630 -0.3000 -0.3441
 1324UNK    F0711915  22.467   4.146   9.417 -0.4381 -0.0210 -0.0247
 1324UNK    H0811916  22.398   3.868   9.565 -0.4908 -0.8078 -0.0344
 1325UNK    F0011917  27.201   3.363  10.193  0.0019 -0.1548 -0.0574
 1325UNK    C0111918  27.155   3.414  10.078 -0.0191 -1.0658 -0.5628
 1325UNK    H0211919  27.069   3.355  10.044 -0.6998 -2.7347  3.8305
 1325UNK    C0311920  27.224   3.489   9.997 -0.3084  0.1764 -0.7180
 1325UNK    C0411921  27.192   3.529   9.860  0.7559  0.1892  0.0561
 1325UNK    F0511922  27.301   3.538   9.785  0.9473 -0.1867  0.1890
 1325UNK    F0611923  27.137   3.426   9.789  0.3419  0.1547  0.4492
 1325UNK    F0711924  27.117   3.640   9.840 -0.3243 -0.2361 -0.0114
 1325UNK    H0811925  27.318   3.527  10.034  0.7186 -3.3404  0.5365
 1326UNK    F0011926  27.988   1.189   9.418  0.1857  0.0380 -0.2949
 1326UNK    C0111927  28.028   1.096   9.337 -0.0099  0.9794  0.2394
 1326UNK    H0211928  28.131   1.066   9.357  0.8766  3.3847 -0.4202
 1326UNK    C0311929  27.928   1.018   9.282 -0.1789 -0.2477 -0.7125
 1326UNK    C0411930  27.824   1.067   9.193  0.5333  0.2808 -0.0707
 1326UNK    F0511931  27.763   1.184   9.226  0.1247  0.3745  0.3164
 1326UNK    F0611932  27.868   1.075   9.065 -0.0518  0.4642 -0.1040
 1326UNK    F0711933  27.719   0.986   9.194  0.2323  0.4123 -0.3324
 1326UNK    H0811934  27.910   0.916   9.312  0.5925  0.4881  2.4005
 1327UNK    F0011935  25.807   2.231  10.390 -0.3636 -0.0704  0.2213
 1327UNK    C0111936  25.690   2.172  10.375  0.5413 -0.0884 -1.0584
 1327UNK    H0211937  25.698   2.064  10.369 -3.0357 -0.5250  0.7358
 1327UNK    C0311938  25.594   2.244  10.323  0.3055 -0.8007  0.8721
 1327UNK    C0411939  25.453   2.202  10.310  0.1180  0.0820 -0.2554
 1327UNK    F0511940  25.403   2.213  10.435 -0.1001  0.4254  0.2911
 1327UNK    F0611941  25.408   2.297  10.225 -0.1935 -0.2707 -0.2485
 1327UNK    F0711942  25.453   2.076  10.266  0.4888  0.4201  0.2111
 1327UNK    H0811943  25.604   2.350  10.306 -0.3965 -1.1193 -1.9247
 1328UNK    F0011944  26.890   4.577  10.826  0.3743 -0.0585 -0.3132
 1328UNK    C0111945  26.889   4.540  10.697 -0.3374  0.5236  0.1419
 1328UNK    H0211946  26.838   4.446  10.677  2.7283 -1.4366  1.2803
 1328UNK    C0311947  26.968   4.607  10.611  0.4333 -0.2233  0.5054
 1328UNK    C0411948  26.957   4.606  10.465 -0.1918 -0.2660 -0.2386
 1328UNK    F0511949  26.929   4.478  10.417 -0.3698 -0.4097  0.5592
 1328UNK    F0611950  26.865   4.700  10.423  0.2550 -0.2060  0.7616
 1328UNK    F0711951  27.075   4.646  10.415 -0.4001 -0.4510 -0.3484
 1328UNK    H0811952  27.064   4.641  10.646  1.4782 -1.3894 -1.1652
 1329UNK    F0011953  27.766   4.129   9.984  0.2893 -0.0485 -0.1507
 1329UNK    C0111954  27.881   4.082  10.023 -0.4152 -0.2533 -0.2001
 1329UNK    H0211955  27.861   3.984  10.066 -0.1471 -1.7785 -3.3767
 1329UNK    C0311956  27.971   4.176  10.053  0.2491  0.0201 -0.2471
 1329UNK    C0411957  27.978   4.254  10.181 -0.3320  0.7920  0.2446
 1329UNK    F0511958  27.855   4.251  10.239 -0.7060 -0.1020 -0.4148
 1329UNK    F0611959  28.071   4.205  10.267 -0.1600 -0.0428  0.2140
 1329UNK    F0711960  28.027   4.379  10.163  0.7681 -0.4436 -0.2758
 1329UNK    H0811961  28.057   4.191   9.990  0.4734 -1.4689 -0.3069
 1330UNK    F0011962  27.657   4.404  10.555  0.5754  0.2967 -0.2707
 1330UNK    C0111963  27.553   4.421  10.475 -0.5021  0.4666 -0.5989
 1330UNK    H0211964  27.492   4.509  10.497 -1.2320  0.2017 -1.5127
 1330UNK    C0311965  27.562   4.341  10.368  0.7197 -0.2416  0.2841
 1330UNK    C0411966  27.482   4.359  10.247 -0.6506 -0.1239 -0.3384
 1330UNK    F0511967  27.374   4.439  10.268 -0.0206 -0.3023  0.2953
 1330UNK    F0611968  27.550   4.415  10.138 -0.6524 -0.5817  0.1231
 1330UNK    F0711969  27.436   4.235  10.209 -0.1442  0.9765  0.1125
 1330UNK    H0811970  27.650   4.282  10.349  1.1192  0.4065  0.1098
 1331UNK    F0011971  26.792   1.904   9.874  0.0101  0.1845 -0.3663
 1331UNK    C0111972  26.802   1.923   9.743  0.1770  0.1444  0.2318
 1331UNK    H0211973  26.718   1.881   9.688  0.1241 -1.0025  1.1826
 1331UNK    C0311974  26.923   1.911   9.694  0.5616  0.4863  0.2748
 1331UNK    C0411975  26.957   1.994   9.573 -0.1593  0.5724  0.8875
 1331UNK    F0511976  27.074   1.947   9.528  0.7966 -0.4370  0.5339
 1331UNK    F0611977  26.880   1.971   9.466  0.0464  0.3553 -0.2590
 1331UNK    F0711978  26.953   2.129   9.586 -0.4111  0.5303  0.2436
 1331UNK    H0811979  27.003   1.872   9.755  2.1898  0.6082 -1.7252
 1332UNK    F0011980  24.366   4.773   9.115 -0.5204 -0.2244 -0.3028
 1332UNK    C0111981  24.312   4.795   8.993 -0.1173 -0.3559 -0.7919
 1332UNK    H0211982  24.260   4.708   8.952  1.0138 -0.3896 -2.2249
 1332UNK    C0311983  24.322   4.911   8.924 -0.2451 -0.0562 -0.6364
 1332UNK    C0411984  24.314   5.042   8.993 -0.6167 -0.8028 -0.8241
 1332UNK    F0511985  24.256   5.122   8.901  0.1553 -0.9100 -0.1181
 1332UNK    F0611986  24.245   5.047   9.109  0.0617 -0.2110 -0.1239
 1332UNK    F0711987  24.441   5.086   9.006  0.2797 -0.2635 -0.2525
 1332UNK    H0811988  24.386   4.918   8.838 -0.6897 -0.1586 -0.9818
 1333UNK    F0011989  26.025   3.374  10.796  0.0203 -0.1134 -0.6074
 1333UNK    C0111990  26.098   3.280  10.724  0.1870 -1.1562  0.4169
 1333UNK    H0211991  26.035   3.207  10.674  0.1348 -0.2698 -0.8270
 1333UNK    C0311992  26.224   3.264  10.759 -0.3334 -0.1752 -0.0314
 1333UNK    C0411993  26.320   3.379  10.756 -0.4915  0.2896 -0.3687
 1333UNK    F0511994  26.324   3.448  10.872 -0.1858 -0.2694 -0.1200
 1333UNK    F0611995  26.439   3.333  10.724 -0.4720 -0.0563  0.2345
 1333UNK    F0711996  26.289   3.468  10.661 -0.5419  0.3290  0.0729
 1333UNK    H0811997  26.260   3.169  10.794 -2.1676 -1.2496 -0.9972
 1334UNK    F0011998  24.691   4.178   9.820  0.4642 -0.3087 -0.1802
 1334UNK    C0111999  24.643   4.281   9.755 -0.2383 -0.0338 -0.2590
 1334UNK    H0212000  24.719   4.338   9.703  0.8621 -0.3201  1.0027
 1334UNK    C0312001  24.528   4.331   9.797  0.2508  1.1244 -0.1892
 1334UNK    C0412002  24.525   4.432   9.899  0.4609 -0.0816 -0.3072
 1334UNK    F0512003  24.551   4.558   9.857 -0.2081  0.8086 -0.1417
 1334UNK    F0612004  24.401   4.447   9.950  0.0716 -0.4345  0.4419
 1334UNK    F0712005  24.617   4.411   9.997 -0.1889  0.1944 -0.5752
 1334UNK    H0812006  24.454   4.359   9.723  0.2367 -0.0679 -0.6240
 1335UNK    F0012007  27.194   3.915  10.071 -0.2610  0.2739  0.1129
 1335UNK    C0112008  27.097   3.968   9.990  0.3571 -0.5218  0.4105
 1335UNK    H0212009  27.137   3.962   9.889 -1.1202  2.1670 -0.3807
 1335UNK    C0312010  26.975   3.991  10.032  0.3783  0.4909  0.3220
 1335UNK    C0412011  26.859   4.011   9.941  0.0090  0.2596  0.0883
 1335UNK    F0512012  26.878   4.101   9.839 -0.5704 -0.0514 -0.2478
 1335UNK    F0612013  26.848   3.901   9.870 -0.2136  0.1511 -0.4286
 1335UNK    F0712014  26.743   4.028  10.010  0.2300 -0.0235  0.6562
 1335UNK    H0812015  26.947   3.977  10.135 -1.8054 -0.3337 -0.3630
 1336UNK    F0012016  28.653   3.558   9.820  0.1412  0.5089  0.2366
 1336UNK    C0112017  28.581   3.454   9.855  0.3760  0.3825 -0.6228
 1336UNK    H0212018  28.477   3.478   9.834  1.6087  5.7891 -1.2720
 1336UNK    C0312019  28.645   3.347   9.902  0.2187 -0.0030  0.3530
 1336UNK    C0412020  28.593   3.208   9.886  0.0487 -0.0672  0.3735
 1336UNK    F0512021  28.647   3.116   9.979 -0.2259  0.1346  0.1584
 1336UNK    F0612022  28.456   3.210   9.895 -0.1079  0.4394 -0.2250
 1336UNK    F0712023  28.605   3.162   9.760 -0.4477  0.2258 -0.5091
 1336UNK    H0812024  28.705   3.352   9.992 -1.8042 -0.7669  1.8059
 1337UNK    F0012025  27.507   3.772  10.297  0.4232 -0.2755 -0.3677
 1337UNK    C0112026  27.621   3.709  10.320  0.9348 -0.4632  0.4494
 1337UNK    H0212027  27.676   3.705  10.226 -2.2087 -0.3484 -1.4659
 1337UNK    C0312028  27.622   3.608  10.406  0.3379 -0.8007  0.3027
 1337UNK    C0412029  27.737   3.589  10.493  0.2008  0.0435  0.7626
 1337UNK    F0512030  27.743   3.461  10.542 -0.2883 -0.1666 -0.3674
 1337UNK    F0612031  27.849   3.612  10.430 -0.0567 -0.3632 -0.4451
 1337UNK    F0712032  27.732   3.675  10.588 -0.9503  0.7045  0.2103
 1337UNK    H0812033  27.531   3.600  10.463  0.0022 -1.0660 -0.2701
 1338UNK    F0012034  25.469   0.360   8.890 -0.4621  0.9681 -0.1679
 1338UNK    C0112035  25.467   0.278   8.782  0.2190 -0.4308 -0.1195
 1338UNK    H0212036  25.365   0.247   8.758 -0.2818  1.7055 -0.8520
 1338UNK    C0312037  25.576   0.263   8.707  0.1170 -0.2254 -0.0863
 1338UNK    C0412038  25.700   0.207   8.758 -0.0881  0.2079 -1.0448
 1338UNK    F0512039  25.740   0.248   8.881 -0.2573  0.5947 -0.1051
 1338UNK    F0612040  25.689   0.075   8.765 -0.3674  0.4872  0.5011
 1338UNK    F0712041  25.793   0.233   8.669 -0.3831 -0.5699  0.0912
 1338UNK    H0812042  25.559   0.221   8.609 -2.3546 -0.4358  0.4045
 1339UNK    F0012043  29.238   3.746   8.932  0.8207  0.1066  0.0616
 1339UNK    C0112044  29.145   3.739   9.031 -0.0032  0.8467 -0.0707
 1339UNK    H0212045  29.042   3.739   8.997  0.2374 -0.9463 -0.8522
 1339UNK    C0312046  29.188   3.756   9.155  0.2310  0.1434 -0.2197
 1339UNK    C0412047  29.101   3.718   9.267  0.5154 -0.0257 -0.5243
 1339UNK    F0512048  29.111   3.585   9.289  0.0897  0.4005 -0.4932
 1339UNK    F0612049  29.137   3.782   9.380 -0.0301 -0.0097  0.3835
 1339UNK    F0712050  28.971   3.753   9.231 -0.5143  0.2904 -0.1506
 1339UNK    H0812051  29.294   3.752   9.176  0.0205 -1.8716  0.6144
 1340UNK    F0012052  26.817   2.344   8.991 -0.3649 -0.0232 -0.1894
 1340UNK    C0112053  26.748   2.241   9.050 -0.6026 -0.4899 -0.1630
 1340UNK    H0212054  26.805   2.147   9.052 -1.2922 -0.9126 -0.1063
 1340UNK    C0312055  26.618   2.241   9.022 -0.0972 -0.3700 -0.1898
 1340UNK    C0412056  26.531   2.130   9.041 -0.2009  0.1387  0.2795
 1340UNK    F0512057  26.592   2.010   9.014 -0.0017 -0.0246 -0.1968
 1340UNK    F0612058  26.489   2.125   9.175 -0.6442  0.2111  0.3616
 1340UNK    F0712059  26.414   2.140   8.970 -0.5982  0.3528  0.4963
 1340UNK    H0812060  26.579   2.315   8.955 -1.5912 -0.2173  0.8046
 1341UNK    F0012061  27.930   0.916  11.348 -0.0483 -0.0676 -0.1424
 1341UNK    C0112062  27.916   0.959  11.222 -0.4954 -0.1754  0.0219
 1341UNK    H0212063  28.010   1.000  11.186 -0.3655 -1.6543 -1.3778
 1341UNK    C0312064  27.796   0.979  11.178  0.2010 -0.3544 -0.0898
 1341UNK    C0412065  27.747   0.979  11.039  0.3537 -1.1250  0.3906
 1341UNK    F0512066  27.827   1.052  10.958  0.3341  0.2258 -0.2519
 1341UNK    F0612067  27.731   0.860  10.976 -0.8178  0.0146 -0.5961
 1341UNK    F0712068  27.625   1.035  11.023 -0.0275  0.0217  0.1035
 1341UNK    H0812069  27.718   0.962  11.250  1.5951 -2.4023  1.0113
 1342UNK    F0012070  27.013   3.279  10.734  0.0485 -0.1929 -0.2859
 1342UNK    C0112071  26.999   3.167  10.663 -0.4164 -0.0791  0.1467
 1342UNK    H0212072  26.958   3.084  10.720 -1.3830 -2.4742 -3.8080
 1342UNK    C0312073  27.012   3.163  10.527 -0.3414 -0.6450 -0.4095
 1342UNK    C0412074  26.969   3.271  10.438  0.7552  1.2123 -0.1067
 1342UNK    F0512075  26.942   3.230  10.316  0.1387 -0.0231  0.0296
 1342UNK    F0612076  26.851   3.324  10.472  0.0705 -0.3599  0.2544
 1342UNK    F0712077  27.042   3.380  10.438  0.3232 -0.1172  0.6314
 1342UNK    H0812078  27.038   3.067  10.485  0.2567 -1.8816  2.6282
 1343UNK    F0012079  24.814   0.279   8.566  0.1675  0.8731 -0.2525
 1343UNK    C0112080  24.817   0.231   8.691 -0.7255  0.7418 -0.5146
 1343UNK    H0212081  24.751   0.293   8.751 -0.6003  1.1722 -0.8192
 1343UNK    C0312082  24.861   0.104   8.700  0.2402  1.0915 -0.0157
 1343UNK    C0412083  25.005   0.085   8.700 -0.0284  0.4265 -0.3465
 1343UNK    F0512084  25.066   0.103   8.820 -0.2694 -1.0152  0.2153
 1343UNK    F0612085  25.035  -0.045   8.663 -0.6995 -0.3141 -0.6911
 1343UNK    F0712086  25.065   0.173   8.610 -0.0192 -0.2441 -0.3333
 1343UNK    H0812087  24.807   0.024   8.652  0.5651  0.3264  0.8840
 1344UNK    F0012088  25.644   4.620  11.058  0.2233 -0.5186 -0.1437
 1344UNK    C0112089  25.608   4.650  11.185  0.1030  0.2210  0.0982
 1344UNK    H0212090  25.661   4.737  11.223 -0.7585  0.0973  1.6430
 1344UNK    C0312091  25.558   4.563  11.270  0.2681 -0.0409 -0.9471
 1344UNK    C0412092  25.475   4.615  11.385 -0.0892  0.4141  0.6949
 1344UNK    F0512093  25.487   4.521  11.481  0.1363 -0.1342 -0.3028
 1344UNK    F0612094  25.539   4.726  11.428 -0.2256 -0.6653 -0.0057
 1344UNK    F0712095  25.343   4.635  11.358 -0.8734  0.3018 -0.1610
 1344UNK    H0812096  25.584   4.458  11.269 -2.3782 -0.7342 -0.5099
 1345UNK    F0012097  26.388   4.561   9.815 -0.2933  0.0065  0.1614
 1345UNK    C0112098  26.413   4.675   9.747 -0.0390 -0.4269  0.1402
 1345UNK    H0212099  26.521   4.679   9.735  0.3312 -2.7144  2.4008
 1345UNK    C0312100  26.315   4.739   9.686 -0.6945 -0.1451  0.2467
 1345UNK    C0412101  26.347   4.838   9.583 -0.0619 -0.2812 -0.1529
 1345UNK    F0512102  26.235   4.895   9.546 -0.0821 -0.4508  0.2970
 1345UNK    F0612103  26.429   4.937   9.621  0.3272 -0.2270  0.3213
 1345UNK    F0712104  26.413   4.791   9.475 -0.4986 -0.0540  0.3878
 1345UNK    H0812105  26.213   4.740   9.721 -0.7217  0.6985  0.1483
 1346UNK    F0012106  33.820   4.619   0.923  0.1157 -0.2274  0.6795
 1346UNK    C0112107  33.835   4.679   0.807 -0.5404 -1.1138 -0.8544
 1346UNK    H0212108  33.929   4.650   0.760  0.6188  2.2069 -0.7113
 1346UNK    C0312109  33.725   4.702   0.744 -0.2962  0.1910  0.1049
 1346UNK    C0412110  33.636   4.596   0.705  0.2754 -0.3033  0.2143
 1346UNK    F0512111  33.557   4.647   0.608  0.1644  0.4335  0.1427
 1346UNK    F0612112  33.703   4.496   0.641  0.0178 -0.8765  0.3360
 1346UNK    F0712113  33.558   4.552   0.807  0.1797  0.2976  0.2209
 1346UNK    H0812114  33.668   4.785   0.782  0.4269  0.6207  0.2725
 1347UNK    F0012115  26.011   0.147  10.953 -0.8059 -0.3172  0.2796
 1347UNK    C0112116  26.141   0.148  10.911  0.0434  0.4806 -0.0249
 1347UNK    H0212117  26.192   0.232  10.958 -1.7771  1.3612  0.4403
 1347UNK    C0312118  26.197   0.073  10.820  0.0959 -0.1141  0.6586
 1347UNK    C0412119  26.197   0.130  10.684  0.2974 -0.6377  0.6785
 1347UNK    F0512120  26.176   0.039  10.581 -0.0649 -0.4209 -0.1164
 1347UNK    F0612121  26.098   0.225  10.663  0.0918  0.1909  0.2443
 1347UNK    F0712122  26.312   0.201  10.661 -0.4649 -0.0784 -0.6563
 1347UNK    H0812123  26.197  -0.034  10.839 -1.0726 -0.0832  0.8984
 1348UNK    F0012124  25.921   4.738  11.429  0.3196 -0.0475  0.2041
 1348UNK    C0112125  25.855   4.686  11.531 -0.0760  0.0959  0.6309
 1348UNK    H0212126  25.836   4.767  11.601 -0.6934  2.1408 -1.7967
 1348UNK    C0312127  25.864   4.556  11.554 -0.5900 -0.1591 -0.4096
 1348UNK    C0412128  25.983   4.503  11.628  0.1777  0.2244  0.1409
 1348UNK    F0512129  25.953   4.493  11.757  0.3323  0.0618  0.0561
 1348UNK    F0612130  26.025   4.380  11.587 -0.0770 -0.0267 -0.0001
 1348UNK    F0712131  26.084   4.586  11.613  0.6994  0.3312 -0.2586
 1348UNK    H0812132  25.775   4.495  11.553 -0.4576 -0.3521 -0.3766
 1349UNK    F0012133  25.951   0.941  11.544 -0.4621 -0.1976  0.1731
 1349UNK    C0112134  25.876   0.905  11.647  0.0980  0.0926 -0.0959
 1349UNK    H0212135  25.872   0.986  11.720 -1.0355  2.9390 -3.1918
 1349UNK    C0312136  25.831   0.778  11.658  0.7226 -0.2815  0.2164
 1349UNK    C0412137  25.691   0.757  11.703 -0.6920 -0.4438  0.8082
 1349UNK    F0512138  25.668   0.628  11.723  0.5661  0.5805 -0.0098
 1349UNK    F0612139  25.664   0.827  11.816 -0.1555  0.0153  0.0047
 1349UNK    F0712140  25.590   0.809  11.620 -0.2350  0.4492  0.2044
 1349UNK    H0812141  25.858   0.700  11.589  0.1615  0.7759 -1.2157
 1350UNK    F0012142  28.644   3.178  10.514  0.3990  0.3178  0.0486
 1350UNK    C0112143  28.529   3.241  10.548  0.5833 -0.1988 -0.1463
 1350UNK    H0212144  28.546   3.316  10.624  1.6498  1.9022 -2.3918
 1350UNK    C0312145  28.418   3.217  10.479 -0.1107  0.2451 -0.4052
 1350UNK    C0412146  28.345   3.089  10.498  0.2771  0.2847 -0.1533
 1350UNK    F0512147  28.267   3.081  10.610  0.3585  0.4493 -0.0140
 1350UNK    F0612148  28.267   3.058  10.386 -0.3995  0.0671 -0.3564
 1350UNK    F0712149  28.427   2.981  10.496 -0.6786 -0.5832 -0.0593
 1350UNK    H0812150  28.386   3.278  10.395  0.7759 -1.3498 -1.9178
 1351UNK    F0012151  24.663   0.931   9.884  0.1855  0.0921 -0.1718
 1351UNK    C0112152  24.763   1.017   9.864  0.6458 -0.6025 -0.2149
 1351UNK    H0212153  24.734   1.102   9.803 -0.4527 -1.4822 -0.9449
 1351UNK    C0312154  24.885   0.991   9.919 -0.8476 -0.1727  0.2002
 1351UNK    C0412155  24.900   0.901  10.036  0.5441  0.2504  0.4017
 1351UNK    F0512156  24.899   0.768  10.010  0.0856 -0.1198 -0.4494
 1351UNK    F0612157  25.019   0.928  10.100 -0.2120  0.6057  0.1449
 1351UNK    F0712158  24.799   0.939  10.122 -0.2931  0.3409 -0.6199
 1351UNK    H0812159  24.972   0.997   9.855 -0.9705 -0.7634 -0.0240
 1352UNK    F0012160  30.168   1.707   7.400 -0.3648  0.3669  0.7124
 1352UNK    C0112161  30.107   1.650   7.505  0.0880  0.4461 -0.4995
 1352UNK    H0212162  30.175   1.647   7.590 -1.2207  1.2942  0.5968
 1352UNK    C0312163  30.010   1.570   7.476  0.3462 -0.0148 -0.0681
 1352UNK    C0412164  29.878   1.590   7.535 -0.0685  0.0571 -0.3062
 1352UNK    F0512165  29.821   1.693   7.467 -0.0067 -0.0480 -0.0021
 1352UNK    F0612166  29.797   1.476   7.524  0.8377  0.1058 -0.1907
 1352UNK    F0712167  29.890   1.623   7.667  0.2967 -0.6574 -0.2739
 1352UNK    H0812168  30.013   1.523   7.379  2.2215  1.3977 -0.7141
 1353UNK    F0012169  24.656   4.985   9.530  0.1856 -0.2746 -0.2303
 1353UNK    C0112170  24.646   5.000   9.664  0.2773 -0.3914 -0.7786
 1353UNK    H0212171  24.584   4.920   9.704  0.8856 -0.7035 -0.4567
 1353UNK    C0312172  24.723   5.085   9.728 -0.7060 -0.9371  0.4960
 1353UNK    C0412173  24.741   5.083   9.873  0.1102 -0.1407  0.5632
 1353UNK    F0512174  24.806   4.978   9.929 -0.1389  0.2800  0.1231
 1353UNK    F0612175  24.791   5.202   9.912 -0.7001 -0.6161 -0.1008
 1353UNK    F0712176  24.610   5.073   9.907 -0.2537 -0.4728 -0.4416
 1353UNK    H0812177  24.819   5.115   9.689 -0.6301 -2.3684 -0.4788
 1354UNK    F0012178  24.995   0.232  11.439 -0.0110 -0.3963 -0.3844
 1354UNK    C0112179  25.006   0.357  11.399  0.0643 -0.0740  0.0021
 1354UNK    H0212180  24.907   0.401  11.418  1.1506  2.8844 -0.9663
 1354UNK    C0312181  25.095   0.398  11.310  0.3108  0.2815 -0.2116
 1354UNK    C0412182  25.120   0.538  11.278  0.3099 -0.3218 -0.6442
 1354UNK    F0512183  25.164   0.554  11.152 -0.6383 -0.4160  0.7149
 1354UNK    F0612184  25.016   0.619  11.298  0.1258  0.2816 -0.3404
 1354UNK    F0712185  25.219   0.574  11.368 -0.1485 -0.2881 -0.0547
 1354UNK    H0812186  25.179   0.334  11.288 -0.9499 -2.2027  1.9424
 1355UNK    F0012187  27.490   1.894  10.540  0.3752  0.0092 -0.2853
 1355UNK    C0112188  27.363   1.934  10.538  0.8777  0.8844  0.1542
 1355UNK    H0212189  27.361   2.031  10.589  0.1552  1.7804 -1.5122
 1355UNK    C0312190  27.282   1.879  10.448 -0.0721  0.2127 -0.6988
 1355UNK    C0412191  27.161   1.944  10.397 -0.1522 -0.6668  0.4635
 1355UNK    F0512192  27.070   1.858  10.353 -0.5020 -0.0047  0.3888
 1355UNK    F0612193  27.102   2.018  10.492 -0.4308  0.0790  0.7021
 1355UNK    F0712194  27.188   2.022  10.286 -0.1193  0.1865  0.2999
 1355UNK    H0812195  27.288   1.774  10.423 -0.9745 -0.6016  2.3315
 1356UNK    F0012196  28.438   0.355   9.868 -0.2105 -0.2081 -0.0910
 1356UNK    C0112197  28.478   0.231   9.875  0.2882 -0.0445 -0.4540
 1356UNK    H0212198  28.449   0.179   9.783  0.0769  0.2703 -0.5657
 1356UNK    C0312199  28.495   0.163   9.990  1.0859 -0.0156  0.0279
 1356UNK    C0412200  28.552   0.212  10.116  0.2780  0.3412 -0.1127
 1356UNK    F0512201  28.633   0.316  10.095  0.1419 -0.0867 -0.3536
 1356UNK    F0612202  28.450   0.246  10.198  0.4195  0.0667 -0.1284
 1356UNK    F0712203  28.623   0.107  10.162  0.0938  0.2340 -0.6525
 1356UNK    H0812204  28.471   0.058   9.990 -0.1769  0.2577 -1.8685
 1357UNK    F0012205  24.627   0.678   9.285  0.4262  0.1620 -0.6570
 1357UNK    C0112206  24.734   0.661   9.362  0.4175  0.1263  0.0845
 1357UNK    H0212207  24.802   0.592   9.313 -0.8806 -2.5363  1.9466
 1357UNK    C0312208  24.703   0.670   9.491 -0.5684 -0.7642 -0.8754
 1357UNK    C0412209  24.808   0.696   9.593  0.5155 -1.0724 -0.5371
 1357UNK    F0512210  24.927   0.639   9.567 -0.0256  0.6067 -0.5243
 1357UNK    F0612211  24.837   0.832   9.587  0.4860  0.0210  0.1374
 1357UNK    F0712212  24.767   0.665   9.721  0.3470 -0.2229  0.4772
 1357UNK    H0812213  24.602   0.649   9.522 -1.5040  1.2515 -2.4604
 1358UNK    F0012214  26.156   5.070  11.838 -0.2578 -0.0743  0.0564
 1358UNK    C0112215  26.226   5.174  11.829  0.4564 -0.6535 -0.1406
 1358UNK    H0212216  26.303   5.155  11.755  0.4511 -0.5609 -0.1704
 1358UNK    C0312217  26.233   5.266  11.926 -0.1386 -0.5274  0.0529
 1358UNK    C0412218  26.222   5.408  11.889 -0.2632  0.0784 -0.5470
 1358UNK    F0512219  26.096   5.458  11.898  0.0403  0.6619 -0.0064
 1358UNK    F0612220  26.302   5.487  11.971  0.2466  0.7180 -0.2126
 1358UNK    F0712221  26.257   5.428  11.756 -0.0747 -0.4959 -0.0932
 1358UNK    H0812222  26.215   5.248  12.030  1.5200  1.1937  0.6770
 1359UNK    F0012223  28.365   0.426  10.503  0.0529 -0.2472  0.2451
 1359UNK    C0112224  28.477   0.503  10.493 -0.3466 -0.3262 -0.1105
 1359UNK    H0212225  28.565   0.459  10.540  0.6019  1.6384 -0.0092
 1359UNK    C0312226  28.460   0.623  10.441 -0.6173  0.4819 -0.8747
 1359UNK    C0412227  28.572   0.681  10.364 -0.3871 -0.4342  0.8807
 1359UNK    F0512228  28.564   0.818  10.345 -0.2592 -0.3232 -0.3316
 1359UNK    F0612229  28.684   0.655  10.426 -0.4319 -0.3759 -0.2722
 1359UNK    F0712230  28.579   0.628  10.240 -0.2642 -0.2546  0.0069
 1359UNK    H0812231  28.367   0.649  10.392 -0.6838  1.2616 -0.3359
 1360UNK    F0012232  25.820   2.788  10.587 -0.2017 -0.3934  0.4809
 1360UNK    C0112233  25.914   2.708  10.636 -0.0121 -0.4455  0.5314
 1360UNK    H0212234  25.907   2.687  10.743 -1.8546  0.6414  0.6479
 1360UNK    C0312235  26.024   2.697  10.556  0.0122 -0.0868 -0.1324
 1360UNK    C0412236  26.141   2.785  10.569  0.5982  0.5522  0.0974
 1360UNK    F0512237  26.120   2.919  10.562 -0.5839  0.2225 -0.5998
 1360UNK    F0612238  26.206   2.764  10.690  0.1399  0.4232  0.1114
 1360UNK    F0712239  26.233   2.762  10.469 -0.1497  0.2657  0.3470
 1360UNK    H0812240  26.006   2.677  10.451  0.3681  0.6506 -0.3306
 1361UNK    F0012241  26.063   4.658  10.877  0.1056  0.3241 -0.4185
 1361UNK    C0112242  26.120   4.735  10.780  0.3229  0.4918 -0.3495
 1361UNK    H0212243  26.211   4.682  10.752  0.7389  0.3966  1.1520
 1361UNK    C0312244  26.030   4.789  10.697 -0.0064 -0.3614  0.0853
 1361UNK    C0412245  25.931   4.716  10.617 -0.2068 -0.3421  0.2216
 1361UNK    F0512246  25.913   4.755  10.488 -1.0292 -0.0540  0.7627
 1361UNK    F0612247  25.980   4.591  10.609 -0.2556 -0.5146 -0.5976
 1361UNK    F0712248  25.811   4.696  10.680 -0.2812 -0.2443  0.3637
 1361UNK    H0812249  25.999   4.892  10.711 -1.2771 -0.6452 -0.5620
 1362UNK    F0012250  26.198   0.579   9.979 -0.1112 -0.4630 -0.3368
 1362UNK    C0112251  26.218   0.710   9.959  0.9907  0.1389 -0.3982
 1362UNK    H0212252  26.158   0.754   9.879 -0.4691  1.0177  1.1598
 1362UNK    C0312253  26.340   0.751   9.978 -0.7163 -0.3336  0.1844
 1362UNK    C0412254  26.380   0.891  10.012  0.9278 -0.4013 -0.1813
 1362UNK    F0512255  26.512   0.905  10.033 -0.0330  0.4063  0.1150
 1362UNK    F0612256  26.360   0.978   9.907 -0.0415  0.0024 -0.8209
 1362UNK    F0712257  26.304   0.931  10.116  0.2288 -0.2550  0.2450
 1362UNK    H0812258  26.411   0.684  10.026 -0.9879  0.1481  1.2846
 1363UNK    F0012259  25.773   0.517   9.628 -0.4862  0.6686  0.0241
 1363UNK    C0112260  25.843   0.599   9.709 -0.6946  0.5148  0.3087
 1363UNK    H0212261  25.933   0.630   9.656 -0.1694 -0.2076  0.7734
 1363UNK    C0312262  25.826   0.631   9.841  0.0395  0.0669 -0.2910
 1363UNK    C0412263  25.846   0.759   9.892 -0.0733  0.2025 -0.2743
 1363UNK    F0512264  25.950   0.833   9.855  0.0794  0.3270  0.1188
 1363UNK    F0612265  25.746   0.835   9.840 -0.5919  0.1092  0.0671
 1363UNK    F0712266  25.844   0.763  10.029 -0.0148 -0.5541  0.3492
 1363UNK    H0812267  25.796   0.559   9.915 -1.0934 -0.2502 -1.0562
 1364UNK    F0012268  23.793   3.885   8.580 -0.1448  0.6511  0.1256
 1364UNK    C0112269  23.870   3.967   8.655  0.0372  0.2209 -0.6861
 1364UNK    H0212270  23.812   4.053   8.688 -0.1229  0.0337 -0.4777
 1364UNK    C0312271  23.983   3.915   8.708 -0.3830  0.3182 -0.2733
 1364UNK    C0412272  24.091   3.982   8.778  0.2725 -0.5285  0.0969
 1364UNK    F0512273  24.212   3.925   8.740 -0.1181 -0.0913 -0.0768
 1364UNK    F0612274  24.096   4.112   8.747  0.3218 -0.1180 -0.1216
 1364UNK    F0712275  24.074   3.966   8.911  0.2510 -0.5154  0.1735
 1364UNK    H0812276  23.995   3.808   8.705  1.2433  0.4928 -0.8341
 1365UNK    F0012277  25.770   3.340  11.885 -0.0662  0.1171 -0.4820
 1365UNK    C0112278  25.877   3.284  11.815 -0.0864  0.1424  0.4361
 1365UNK    H0212279  25.895   3.184  11.853  0.6168 -0.1808 -0.7175
 1365UNK    C0312280  25.974   3.362  11.771 -0.4634 -0.1737  0.3814
 1365UNK    C0412281  26.058   3.318  11.656 -0.3791  0.9852  0.4609
 1365UNK    F0512282  26.023   3.380  11.542  0.3225  0.4683  0.2043
 1365UNK    F0612283  26.191   3.337  11.656 -0.3266  0.2000  0.0814
 1365UNK    F0712284  26.037   3.185  11.635  0.0396 -0.1529  0.1779
 1365UNK    H0812285  25.960   3.469  11.775 -0.5050 -0.1455 -0.3517
 1366UNK    F0012286  28.314   2.583  11.551  0.2810  0.1067  0.2956
 1366UNK    C0112287  28.213   2.646  11.607 -0.3072  0.3557 -0.5863
 1366UNK    H0212288  28.229   2.670  11.712  1.3346  2.2166 -1.2405
 1366UNK    C0312289  28.124   2.697  11.523 -0.0271 -0.1772  0.0610
 1366UNK    C0412290  28.007   2.620  11.477  0.4269 -0.6137  0.1830
 1366UNK    F0512291  27.955   2.671  11.364  0.0273  0.2271 -0.4003
 1366UNK    F0612292  28.035   2.489  11.448  0.1942 -0.2038  0.1939
 1366UNK    F0712293  27.913   2.619  11.578  0.6176 -0.0187  0.3599
 1366UNK    H0812294  28.140   2.797  11.486  0.4677  0.0219  0.8045
 1367UNK    F0012295  25.593   0.187  10.729 -0.0068 -0.3763  0.7266
 1367UNK    C0112296  25.699   0.105  10.713 -0.0126  0.1036  0.1297
 1367UNK    H0212297  25.793   0.159  10.724 -1.0813  2.1665 -0.5498
 1367UNK    C0312298  25.672  -0.013  10.661 -0.9579 -0.1964  0.2135
 1367UNK    C0412299  25.782  -0.098  10.607 -0.9403 -0.1812 -0.5417
 1367UNK    F0512300  25.866  -0.030  10.526 -0.0677 -0.0954 -0.1505
 1367UNK    F0612301  25.861  -0.148  10.708 -0.5496  0.0746  0.0520
 1367UNK    F0712302  25.736  -0.200  10.535  0.7843  0.0336  0.4496
 1367UNK    H0812303  25.597  -0.066  10.719 -2.3186 -0.4027 -1.6950
 1368UNK    F0012304  25.788   4.016  11.121 -0.0372 -0.2505 -0.0150
 1368UNK    C0112305  25.808   4.106  11.213 -0.2999 -0.1704 -0.6771
 1368UNK    H0212306  25.799   4.208  11.175 -2.7942 -0.5776 -1.2066
 1368UNK    C0312307  25.771   4.068  11.335 -1.0812  0.0300 -0.0824
 1368UNK    C0412308  25.722   4.150  11.448  0.1859 -1.1499  0.5091
 1368UNK    F0512309  25.604   4.212  11.416  0.0634  0.6981  0.3752
 1368UNK    F0612310  25.699   4.075  11.563 -0.2476  0.1411 -0.1310
 1368UNK    F0712311  25.802   4.253  11.484 -0.2337  0.4063  0.0144
 1368UNK    H0812312  25.749   3.965  11.358  0.2614 -0.9006 -2.7874
 1369UNK    F0012313  27.541   4.607  10.790  0.2353 -0.0279 -0.4654
 1369UNK    C0112314  27.589   4.564  10.909 -0.5655 -0.5729 -0.3446
 1369UNK    H0212315  27.509   4.549  10.982  2.4204 -1.4346  2.8816
 1369UNK    C0312316  27.719   4.563  10.935 -0.1135 -0.0994  0.2877
 1369UNK    C0412317  27.783   4.452  11.005  0.1799  0.4720  0.0435
 1369UNK    F0512318  27.743   4.329  10.965  0.0551 -0.1859  0.5404
 1369UNK    F0612319  27.913   4.439  10.979  0.1339  0.0447 -0.1443
 1369UNK    F0712320  27.768   4.457  11.136 -0.3832 -0.4038  0.2121
 1369UNK    H0812321  27.788   4.627  10.882 -0.3302  0.4915  0.7210
 1370UNK    F0012322  25.364   4.591   9.640 -0.2069  0.0660  0.3693
 1370UNK    C0112323  25.458   4.502   9.625  0.3487  0.3596 -0.1859
 1370UNK    H0212324  25.489   4.465   9.722 -0.3082 -1.2487 -0.5751
 1370UNK    C0312325  25.461   4.423   9.521  0.1897  0.1586 -0.8539
 1370UNK    C0412326  25.348   4.341   9.475 -0.2036  0.5719  0.2333
 1370UNK    F0512327  25.276   4.286   9.582 -0.1600  0.1132  0.1496
 1370UNK    F0612328  25.265   4.415   9.400  0.4061  0.4139 -0.3331
 1370UNK    F0712329  25.388   4.249   9.386  0.1705  0.0921  0.2276
 1370UNK    H0812330  25.549   4.367   9.493 -1.1775 -0.6598 -3.6336
 1371UNK    F0012331  25.584   3.699  10.884 -0.4011 -0.0861 -0.4724
 1371UNK    C0112332  25.637   3.640  10.776 -0.2309 -0.3763  0.2426
 1371UNK    H0212333  25.683   3.719  10.716  0.7837 -1.4632 -0.4248
 1371UNK    C0312334  25.615   3.514  10.742  0.1486  0.0553 -0.2638
 1371UNK    C0412335  25.614   3.399  10.833 -0.5363  0.1091  0.4538
 1371UNK    F0512336  25.720   3.402  10.919 -0.6924  0.1737  0.4837
 1371UNK    F0612337  25.510   3.407  10.918  0.0909  0.2243  0.2412
 1371UNK    F0712338  25.622   3.280  10.770  0.2738 -0.1474  0.5487
 1371UNK    H0812339  25.574   3.473  10.651 -0.7451 -0.9140  0.5656
 1372UNK    F0012340  25.391   2.481  10.541 -0.0949 -0.3929  0.5418
 1372UNK    C0112341  25.429   2.555  10.649  0.3367  0.0961  0.8077
 1372UNK    H0212342  25.350   2.623  10.680  1.2315  1.6504 -0.2327
 1372UNK    C0312343  25.533   2.529  10.727 -0.4804  0.3043 -0.1399
 1372UNK    C0412344  25.563   2.603  10.849 -0.1608  0.2739 -0.8622
 1372UNK    F0512345  25.498   2.543  10.955 -0.2918  0.0653 -0.2039
 1372UNK    F0612346  25.695   2.604  10.878  0.1296  0.0422  0.2803
 1372UNK    F0712347  25.528   2.733  10.835 -0.2907 -0.4591  0.0141
 1372UNK    H0812348  25.605   2.451  10.708  1.7563  2.2234  0.2824
 1373UNK    F0012349  26.037   2.452  10.807 -0.5404 -0.2813 -0.4666
 1373UNK    C0112350  26.130   2.399  10.892  0.0559 -0.6082 -0.6447
 1373UNK    H0212351  26.206   2.364  10.823 -0.3073  0.7866 -1.7698
 1373UNK    C0312352  26.092   2.337  11.005 -0.2716 -0.3919 -0.0717
 1373UNK    C0412353  25.986   2.409  11.076  0.0951 -0.7167 -1.4738
 1373UNK    F0512354  25.996   2.391  11.212 -0.2191 -0.2027 -0.2508
 1373UNK    F0612355  25.988   2.544  11.049 -0.5253 -0.0836 -0.3977
 1373UNK    F0712356  25.870   2.367  11.021  0.8828 -0.0980 -0.1228
 1373UNK    H0812357  26.069   2.232  11.005  0.2341 -0.5161 -2.3223
 1374UNK    F0012358  26.125   4.460  11.117  0.2235 -0.3805  0.2257
 1374UNK    C0112359  26.247   4.521  11.121 -0.1432 -0.3668  0.1156
 1374UNK    H0212360  26.255   4.604  11.050  0.1375  0.0635  0.6440
 1374UNK    C0312361  26.350   4.444  11.148 -0.2175  0.3471 -0.0221
 1374UNK    C0412362  26.368   4.371  11.276 -0.0342  0.5976 -0.0573
 1374UNK    F0512363  26.263   4.287  11.296  0.6749 -0.1573 -0.0270
 1374UNK    F0612364  26.480   4.292  11.253  0.2114 -0.1307 -0.3006
 1374UNK    F0712365  26.384   4.457  11.385 -0.3741  0.6443 -0.3595
 1374UNK    H0812366  26.382   4.389  11.060  1.3015  0.4915  0.4151
 1375UNK    F0012367  24.213   5.132  10.666 -0.2413  0.0447  0.0422
 1375UNK    C0112368  24.311   5.111  10.753 -0.1817 -0.3539 -0.2389
 1375UNK    H0212369  24.383   5.193  10.762 -0.7241 -0.0728  1.7380
 1375UNK    C0312370  24.294   4.996  10.815 -0.1213  0.2587 -0.0864
 1375UNK    C0412371  24.372   4.954  10.934  0.0769  0.6160  0.3298
 1375UNK    F0512372  24.503   4.996  10.937  0.5260 -0.2059 -0.1301
 1375UNK    F0612373  24.319   5.022  11.038 -0.4230 -0.3205 -0.0650
 1375UNK    F0712374  24.363   4.825  10.965  0.2882  0.3705 -0.1109
 1375UNK    H0812375  24.208   4.935  10.795  0.1921  0.4788 -2.2583
 1376UNK    F0012376  22.656   1.327   8.289 -0.1433  0.2266  0.0005
 1376UNK    C0112377  22.636   1.194   8.281  0.0185 -0.2407  0.0544
 1376UNK    H0212378  22.723   1.131   8.300 -0.1577  0.2417  2.6715
 1376UNK    C0312379  22.523   1.160   8.224 -0.5301  0.3271 -0.3337
 1376UNK    C0412380  22.504   1.131   8.080 -0.0731 -0.0797  0.1123
 1376UNK    F0512381  22.597   1.194   7.999 -0.0609  0.0209  0.0875
 1376UNK    F0612382  22.521   0.999   8.062  0.3014  0.3783  0.3584
 1376UNK    F0712383  22.386   1.168   8.034  0.2489  0.5616 -0.3534
 1376UNK    H0812384  22.429   1.170   8.276 -0.1675 -3.3296  1.1386
 1377UNK    F0012385  24.021   4.883   9.907 -0.1783  0.2172 -0.6513
 1377UNK    C0112386  24.110   4.791   9.864  0.2962  0.1682 -1.1147
 1377UNK    H0212387  24.212   4.826   9.880 -0.1840  0.7544  0.8578
 1377UNK    C0312388  24.070   4.666   9.871  0.5656  0.6181 -0.5237
 1377UNK    C0412389  23.964   4.608   9.788 -0.0044  0.7755 -0.2828
 1377UNK    F0512390  23.871   4.695   9.763 -0.4386 -0.1017 -0.2810
 1377UNK    F0612391  24.022   4.571   9.669 -0.0913 -0.4172 -0.3712
 1377UNK    F0712392  23.913   4.495   9.850  0.0274 -0.0426 -0.4230
 1377UNK    H0812393  24.130   4.593   9.923  0.6218  1.3703  0.4856
 1378UNK    F0012394  27.579   3.807   9.943 -0.2747  0.2948 -0.2868
 1378UNK    C0112395  27.580   3.716   9.847  0.5569  0.1446  0.0064
 1378UNK    H0212396  27.508   3.733   9.767 -0.0709  1.4555  0.8274
 1378UNK    C0312397  27.677   3.629   9.856  0.5503 -0.2996 -0.1121
 1378UNK    C0412398  27.810   3.672   9.898 -0.3165 -0.0220  0.4729
 1378UNK    F0512399  27.898   3.589   9.846 -0.0435  0.0558  0.2434
 1378UNK    F0612400  27.850   3.787   9.842  0.1881 -0.6632 -0.2706
 1378UNK    F0712401  27.823   3.682  10.028 -0.4100 -0.1070 -0.1136
 1378UNK    H0812402  27.684   3.550   9.783  0.7646  0.1805 -0.6183
 1379UNK    F0012403  26.912   1.394  11.240  0.3894 -0.1232 -0.2027
 1379UNK    C0112404  26.861   1.331  11.347  0.2940  0.2165  0.2700
 1379UNK    H0212405  26.770   1.280  11.315  1.8213 -2.6431  0.3844
 1379UNK    C0312406  26.886   1.378  11.466  0.3545  0.4224  0.0319
 1379UNK    C0412407  26.869   1.288  11.582 -0.0687  0.0991  0.1036
 1379UNK    F0512408  26.755   1.212  11.582 -0.2718 -0.3955 -0.1075
 1379UNK    F0612409  26.960   1.186  11.592 -0.1363  0.4442 -0.2138
 1379UNK    F0712410  26.874   1.363  11.695  0.1366 -0.6666 -0.2153
 1379UNK    H0812411  26.971   1.440  11.491 -1.3141  2.1112  1.6370
 1380UNK    F0012412  23.360   5.173   9.523  0.1922 -0.0276 -0.1942
 1380UNK    C0112413  23.335   5.123   9.647 -0.3218 -0.0929 -0.1823
 1380UNK    H0212414  23.240   5.070   9.639 -0.7747  0.6945 -0.1418
 1380UNK    C0312415  23.386   5.180   9.757 -0.4145 -0.0200  0.5658
 1380UNK    C0412416  23.384   5.118   9.885 -0.5668 -0.5625 -0.4798
 1380UNK    F0512417  23.290   5.019   9.891  0.5152  0.0303 -0.4848
 1380UNK    F0612418  23.496   5.061   9.929 -0.4149 -0.2360 -0.4810
 1380UNK    F0712419  23.362   5.216   9.980  0.0207 -0.2469 -0.5256
 1380UNK    H0812420  23.437   5.275   9.755  0.2594 -0.3889  0.0246
 1381UNK    F0012421  23.382   3.252   9.613  0.5138  0.6276  0.4522
 1381UNK    C0112422  23.392   3.277   9.479  0.2314 -0.4468 -0.8576
 1381UNK    H0212423  23.310   3.340   9.446  1.1421 -0.4803 -3.2488
 1381UNK    C0312424  23.510   3.266   9.418  0.2954  0.9525  0.4411
 1381UNK    C0412425  23.531   3.302   9.277 -0.2849  0.1717 -0.1972
 1381UNK    F0512426  23.575   3.429   9.263  0.2344 -0.0961 -0.0312
 1381UNK    F0612427  23.622   3.224   9.218  0.1696  0.0186  0.4057
 1381UNK    F0712428  23.418   3.302   9.200 -0.1707 -0.6275  0.9095
 1381UNK    H0812429  23.593   3.300   9.479  0.5138  1.7307 -0.2747
 1382UNK    F0012430  26.193   3.827  12.399 -0.1240 -0.1075 -0.2416
 1382UNK    C0112431  26.213   3.776  12.276 -0.7965  0.0079  0.6015
 1382UNK    H0212432  26.153   3.686  12.265 -0.6461  0.0096 -0.2484
 1382UNK    C0312433  26.305   3.837  12.195  0.5075 -1.1233  0.0547
 1382UNK    C0412434  26.318   3.816  12.049 -0.2558 -0.2865 -0.9202
 1382UNK    F0512435  26.227   3.888  11.979 -0.3696 -0.3643  0.1709
 1382UNK    F0612436  26.442   3.840  11.999 -0.3587 -0.4151  0.6111
 1382UNK    F0712437  26.295   3.688  12.025 -0.0230  0.2030 -0.1313
 1382UNK    H0812438  26.369   3.906  12.248  0.0287  0.4061 -1.3143
 1383UNK    F0012439  30.230   4.120   8.848  0.1756  0.4595  0.1598
 1383UNK    C0112440  30.172   4.187   8.952 -0.3802  0.1201 -0.1594
 1383UNK    H0212441  30.225   4.281   8.966  1.1656 -0.6308 -0.8207
 1383UNK    C0312442  30.041   4.176   8.970  0.5095  0.0584 -0.5504
 1383UNK    C0412443  29.946   4.266   9.042  0.1436 -0.2972  0.0687
 1383UNK    F0512444  29.844   4.199   9.090 -0.5345 -0.0943  0.3479
 1383UNK    F0612445  30.015   4.303   9.153 -0.1607  0.0273 -0.6981
 1383UNK    F0712446  29.899   4.371   8.974 -0.5051  0.2252 -0.9672
 1383UNK    H0812447  29.989   4.105   8.907 -0.9758  1.6918 -1.2012
 1384UNK    F0012448  28.075   2.328  11.818  0.0301  0.7206 -0.5004
 1384UNK    C0112449  28.033   2.252  11.718  0.3265  0.3475 -0.1613
 1384UNK    H0212450  28.123   2.237  11.657  0.4339 -1.0020  0.3137
 1384UNK    C0312451  27.904   2.255  11.697  0.4029 -0.1361  0.1401
 1384UNK    C0412452  27.841   2.153  11.608  0.2891  0.1295  0.6585
 1384UNK    F0512453  27.804   2.037  11.663  0.5538  0.0100  0.4852
 1384UNK    F0612454  27.739   2.208  11.534  0.2156  0.2722 -0.1695
 1384UNK    F0712455  27.929   2.105  11.517 -0.0588 -0.0075 -0.1186
 1384UNK    H0812456  27.834   2.303  11.764  0.8974 -1.5153  1.6723
 1385UNK    F0012457  24.425   1.057  10.245 -0.0341 -0.0992  0.1182
 1385UNK    C0112458  24.366   1.092  10.129  0.1376  0.1829 -0.1132
 1385UNK    H0212459  24.331   1.195  10.126  0.8629  0.3951 -2.4994
 1385UNK    C0312460  24.403   1.015  10.025  0.3207  0.1614 -0.0519
 1385UNK    C0412461  24.375   1.030   9.881 -0.5557 -0.1620  0.3103
 1385UNK    F0512462  24.470   1.113   9.822 -0.3398  0.1073  0.1581
 1385UNK    F0612463  24.367   0.915   9.811  0.5044 -0.2236  0.5651
 1385UNK    F0712464  24.255   1.088   9.855  0.5031 -0.3002 -0.4028
 1385UNK    H0812465  24.446   0.919  10.051  0.5999  0.4197  0.4635
 1386UNK    F0012466  26.987   0.657   9.448 -0.5593  0.2649 -0.0593
 1386UNK    C0112467  27.070   0.679   9.550  0.1833  0.3653  0.4099
 1386UNK    H0212468  27.164   0.725   9.519  0.2259  0.8454  1.2534
 1386UNK    C0312469  27.045   0.618   9.667  0.5443 -0.3922  1.0043
 1386UNK    C0412470  27.097   0.671   9.793  0.2490 -0.5016  0.0503
 1386UNK    F0512471  26.997   0.757   9.840 -0.1862 -0.3544  0.3394
 1386UNK    F0612472  27.107   0.570   9.876  0.2716 -0.3347  0.0006
 1386UNK    F0712473  27.226   0.719   9.774  0.1065  0.0349  0.0290
 1386UNK    H0812474  26.950   0.570   9.684  0.6555 -1.0132 -0.0786
 1387UNK    F0012475  25.153   0.126  10.826 -0.1831 -0.0967  0.3381
 1387UNK    C0112476  25.224   0.217  10.894 -0.4924 -0.7800  0.0880
 1387UNK    H0212477  25.166   0.300  10.934 -0.2372  0.4999 -2.1462
 1387UNK    C0312478  25.344   0.175  10.931 -0.4413 -0.0187  0.2788
 1387UNK    C0412479  25.419   0.229  11.041  0.3681 -0.3936 -0.0284
 1387UNK    F0512480  25.335   0.210  11.145  0.1108  0.0908  0.1953
 1387UNK    F0612481  25.531   0.157  11.064 -0.3672  0.2422 -0.0600
 1387UNK    F0712482  25.434   0.367  11.032  0.0785  0.7607 -0.1787
 1387UNK    H0812483  25.378   0.078  10.897 -2.4539 -1.2018  1.5630
 1388UNK    F0012484  17.301   1.118  11.775 -0.4739  0.3345 -0.2111
 1388UNK    C0112485  17.376   1.026  11.833  0.1821  0.1574 -0.5565
 1388UNK    H0212486  17.473   1.004  11.788  0.3410 -0.8895  0.2742
 1388UNK    C0312487  17.321   0.937  11.922 -0.8662  0.6377  0.1044
 1388UNK    C0412488  17.242   0.824  11.888  0.3977 -0.6103 -0.9071
 1388UNK    F0512489  17.137   0.861  11.815 -0.0952  0.4944  0.6343
 1388UNK    F0612490  17.318   0.721  11.842 -0.3736 -0.1805  0.3524
 1388UNK    F0712491  17.190   0.774  12.008 -0.1056 -0.1160 -0.2651
 1388UNK    H0812492  17.281   0.979  12.013  0.5307 -1.0299  1.5177
 1389UNK    F0012493  26.697   5.220  10.310  1.0657 -0.0609 -0.3270
 1389UNK    C0112494  26.629   5.309  10.388  0.2876 -0.0459 -0.7566
 1389UNK    H0212495  26.626   5.406  10.338  0.0002 -0.1197 -0.8854
 1389UNK    C0312496  26.534   5.257  10.468 -0.0876  0.5287 -0.4015
 1389UNK    C0412497  26.559   5.195  10.603 -0.0449  0.7091  0.6651
 1389UNK    F0512498  26.685   5.151  10.610 -0.6727 -0.1760  0.0470
 1389UNK    F0612499  26.550   5.277  10.708  0.1472 -0.1174 -0.0633
 1389UNK    F0712500  26.474   5.096  10.630 -0.3542 -0.1911  0.0237
 1389UNK    H0812501  26.428   5.263  10.444 -0.2403 -0.3481  0.0601
 1390UNK    F0012502  29.216   1.821   9.322 -0.0286 -0.1816  0.2442
 1390UNK    C0112503  29.235   1.937   9.258  0.6543  0.5626 -0.2246
 1390UNK    H0212504  29.273   2.007   9.333 -1.0075  1.3570 -0.0855
 1390UNK    C0312505  29.182   1.963   9.140  0.0498 -0.1596 -0.3404
 1390UNK    C0412506  29.188   1.873   9.029 -1.0564  0.4548 -0.1179
 1390UNK    F0512507  29.152   1.941   8.923  0.0948 -0.3783  0.3152
 1390UNK    F0612508  29.311   1.822   9.001 -0.2633  0.0569 -0.2110
 1390UNK    F0712509  29.115   1.756   9.046  0.1946  0.1884 -0.0000
 1390UNK    H0812510  29.134   2.057   9.115 -1.1686 -0.2839  1.4508
 1391UNK    F0012511  27.745   4.553   8.290  0.0129  0.5747  0.2319
 1391UNK    C0112512  27.699   4.631   8.197  0.8167 -0.0165 -0.3263
 1391UNK    H0212513  27.603   4.673   8.226  1.0712 -0.4629  1.1863
 1391UNK    C0312514  27.776   4.653   8.086 -0.0530  0.3739 -0.3077
 1391UNK    C0412515  27.779   4.560   7.973 -0.1548  0.1253 -0.4286
 1391UNK    F0512516  27.840   4.632   7.873  0.2029 -0.2264  0.2134
 1391UNK    F0612517  27.846   4.442   7.985  0.1432 -0.6624  0.2818
 1391UNK    F0712518  27.651   4.534   7.934 -0.4608 -0.0382 -0.1399
 1391UNK    H0812519  27.874   4.692   8.112  0.0196 -1.2012  1.9806
 1392UNK    F0012520  28.726   1.700   8.580  0.0399 -0.3217  0.0441
 1392UNK    C0112521  28.821   1.606   8.570  0.1088 -0.7481  0.3835
 1392UNK    H0212522  28.813   1.535   8.488  1.3095  0.9149 -1.2205
 1392UNK    C0312523  28.888   1.580   8.683 -0.2796 -0.4819 -0.1901
 1392UNK    C0412524  28.844   1.468   8.770 -0.2578  0.2632  0.1398
 1392UNK    F0512525  28.900   1.477   8.894  0.3902 -0.0137  0.5774
 1392UNK    F0612526  28.711   1.473   8.800 -0.5118  0.0695 -0.5413
 1392UNK    F0712527  28.878   1.350   8.711  0.2649  0.0602  0.3689
 1392UNK    H0812528  28.920   1.666   8.740  0.0360 -0.1984 -0.7885
 1393UNK    F0012529  28.988   2.047  11.760 -0.1358 -0.1171 -0.4399
 1393UNK    C0112530  28.940   2.070  11.640 -0.4532 -0.1502  0.5102
 1393UNK    H0212531  28.841   2.027  11.625  0.1434 -0.6649 -2.0467
 1393UNK    C0312532  29.019   2.128  11.546  0.1126  0.1312 -0.0036
 1393UNK    C0412533  28.969   2.193  11.426  0.2168 -0.3011  0.5603
 1393UNK    F0512534  28.873   2.120  11.368 -0.4464 -0.2426  0.5132
 1393UNK    F0612535  28.909   2.311  11.464  1.0156  0.1554 -0.2442
 1393UNK    F0712536  29.075   2.193  11.338 -0.3752  0.1404 -0.5193
 1393UNK    H0812537  29.126   2.137  11.557 -0.0137 -0.3879  1.8182
 1394UNK    F0012538  25.472   4.899   9.098  0.1388 -0.4311  0.5014
 1394UNK    C0112539  25.457   4.793   9.021 -0.7215  0.1359  0.4040
 1394UNK    H0212540  25.441   4.830   8.920  0.4655  0.2833  0.2657
 1394UNK    C0312541  25.411   4.684   9.077  0.0414  0.6454 -0.7913
 1394UNK    C0412542  25.477   4.553   9.071  0.2482 -0.1660  0.2297
 1394UNK    F0512543  25.593   4.562   9.147 -0.3490 -0.2752  0.0064
 1394UNK    F0612544  25.402   4.450   9.117  0.4845 -0.1136  0.1236
 1394UNK    F0712545  25.524   4.524   8.945 -0.2133 -0.4269  0.5656
 1394UNK    H0812546  25.344   4.699   9.161  0.6006  1.6181 -0.5008
 1395UNK    F0012547  27.435   2.154   9.259  0.2112 -0.0006 -0.1302
 1395UNK    C0112548  27.415   2.077   9.150  0.2466 -0.4342  0.4123
 1395UNK    H0212549  27.374   2.130   9.063 -0.0576  0.7882  1.2886
 1395UNK    C0312550  27.471   1.958   9.138 -0.3906 -0.2474  0.2223
 1395UNK    C0412551  27.617   1.941   9.131  0.2584 -0.2264 -0.4567
 1395UNK    F0512552  27.638   1.841   9.048  0.0700  0.0140 -0.1010
 1395UNK    F0612553  27.683   2.051   9.076  0.0727 -0.2555 -0.5868
 1395UNK    F0712554  27.674   1.920   9.252 -0.3721  0.4935  0.0224
 1395UNK    H0812555  27.422   1.881   9.079 -2.0713  0.7208  0.3181
 1396UNK    F0012556  25.328   1.487   9.353 -0.0672 -0.4044  0.2807
 1396UNK    C0112557  25.253   1.421   9.449 -0.3144 -0.2073  0.4223
 1396UNK    H0212558  25.323   1.377   9.520  0.6827 -0.0812 -0.4585
 1396UNK    C0312559  25.127   1.391   9.424  0.4869  0.1887 -0.1164
 1396UNK    C0412560  25.042   1.462   9.327  0.1569 -0.0099 -0.2388
 1396UNK    F0512561  25.058   1.412   9.202  0.5928 -0.5907  0.6389
 1396UNK    F0612562  24.911   1.443   9.360  0.1515 -0.3886 -0.2876
 1396UNK    F0712563  25.065   1.593   9.329 -0.5570  0.4443  0.6012
 1396UNK    H0812564  25.071   1.336   9.498  1.5904  3.2607  3.1664
 1397UNK    F0012565  25.888   3.980   7.425 -0.2607  0.0054 -0.1029
 1397UNK    C0112566  25.993   4.057   7.446  0.0013 -0.8309 -0.2796
 1397UNK    H0212567  26.072   4.004   7.499  1.1705  1.9141  0.8422
 1397UNK    C0312568  25.993   4.177   7.389  0.4800  0.1463  0.3108
 1397UNK    C0412569  26.118   4.243   7.347 -0.1692  0.1160 -0.1590
 1397UNK    F0512570  26.168   4.205   7.230 -0.4364 -0.0823  0.3506
 1397UNK    F0612571  26.092   4.375   7.338  0.0922 -0.2278 -0.6373
 1397UNK    F0712572  26.212   4.236   7.451 -0.6280 -0.0299  0.0612
 1397UNK    H0812573  25.914   4.242   7.423 -1.1406  0.0368 -2.9911
 1398UNK    F0012574  25.530   0.810  11.182 -0.1799 -0.4464 -0.2868
 1398UNK    C0112575  25.529   0.940  11.231 -0.3951  0.0754  0.0006
 1398UNK    H0212576  25.613   0.999  11.195 -0.4860  0.1894 -0.0264
 1398UNK    C0312577  25.414   0.977  11.285  0.3287 -0.0076 -0.5655
 1398UNK    C0412578  25.281   0.973  11.227 -0.4230  0.3075 -0.3515
 1398UNK    F0512579  25.216   0.857  11.253 -0.0912  0.0294 -0.1369
 1398UNK    F0612580  25.202   1.066  11.278 -0.4836  0.4403  0.1297
 1398UNK    F0712581  25.286   0.993  11.094 -0.6125 -0.4143 -0.3217
 1398UNK    H0812582  25.415   0.980  11.393  0.5009 -0.8333 -0.5451
 1399UNK    F0012583  25.786   1.189   9.808  0.4499  0.2406 -0.0288
 1399UNK    C0112584  25.884   1.281   9.804 -0.7290 -0.4089  0.4899
 1399UNK    H0212585  25.928   1.296   9.903 -2.6796  1.4017  1.1388
 1399UNK    C0312586  25.889   1.355   9.689 -0.9612  0.8952 -0.0226
 1399UNK    C0412587  26.007   1.443   9.662  0.1549 -0.8982 -0.1622
 1399UNK    F0512588  26.123   1.385   9.638 -0.5512 -0.3855  0.1142
 1399UNK    F0612589  25.989   1.524   9.558 -0.2987  0.3478 -0.0052
 1399UNK    F0712590  26.016   1.524   9.769  0.0435 -0.4355 -0.1864
 1399UNK    H0812591  25.846   1.307   9.603  2.2095 -0.6846 -0.7970
 1400UNK    F0012592  27.779   2.379  10.492 -0.1030  0.0401 -0.0087
 1400UNK    C0112593  27.900   2.397  10.450  0.3049  0.1011 -0.1034
 1400UNK    H0212594  27.904   2.481  10.381  0.4462  0.3728  0.2394
 1400UNK    C0312595  27.994   2.319  10.491 -0.0646 -0.4212 -0.1220
 1400UNK    C0412596  28.136   2.363  10.510  0.2452  0.3744 -0.0882
 1400UNK    F0512597  28.176   2.471  10.433 -0.2315  0.6618  0.0248
 1400UNK    F0612598  28.160   2.386  10.637 -0.4020  0.9596 -0.6001
 1400UNK    F0712599  28.237   2.269  10.486 -0.6318  0.1110 -0.3094
 1400UNK    H0812600  27.960   2.254  10.571 -0.2627  0.6284  0.6540
 1401UNK    F0012601  26.034   4.054  11.670  0.5081 -0.1271 -0.0659
 1401UNK    C0112602  26.127   4.032  11.575  0.1555  0.7706  0.6240
 1401UNK    H0212603  26.122   4.112  11.501  4.6848 -0.0498 -0.7256
 1401UNK    C0312604  26.150   3.902  11.548  0.2477 -0.6511 -0.2963
 1401UNK    C0412605  26.058   3.812  11.476 -0.1164 -0.1334 -0.1112
 1401UNK    F0512606  26.031   3.857  11.352 -0.0863 -0.5251 -0.3885
 1401UNK    F0612607  26.094   3.678  11.476 -0.1555  0.3097 -0.3059
 1401UNK    F0712608  25.939   3.806  11.533  0.1008  0.0005  0.0566
 1401UNK    H0812609  26.253   3.874  11.533  0.2037 -1.5090  0.8508
 1402UNK    F0012610  27.517   3.511  11.166  0.3099 -0.2404 -0.5667
 1402UNK    C0112611  27.533   3.488  11.035 -0.0745 -0.2031 -0.1540
 1402UNK    H0212612  27.471   3.408  10.997 -2.1246  0.5132  1.5442
 1402UNK    C0312613  27.626   3.558  10.960 -0.6570 -0.5351 -0.1444
 1402UNK    C0412614  27.761   3.500  10.957  0.0607 -0.1659  0.4863
 1402UNK    F0512615  27.743   3.364  10.972 -0.6809  0.4864  0.5841
 1402UNK    F0612616  27.816   3.510  10.831 -0.2615  0.3170  0.3288
 1402UNK    F0712617  27.848   3.552  11.046 -0.3635 -0.0867 -0.0584
 1402UNK    H0812618  27.638   3.661  10.990 -0.7756 -0.4733 -0.3093
 1403UNK    F0012619  23.490   4.272  10.145  0.0778 -0.1648  0.5241
 1403UNK    C0112620  23.604   4.341  10.124 -0.1383  0.8015  0.6011
 1403UNK    H0212621  23.689   4.280  10.157 -0.6340  0.7330  1.7642
 1403UNK    C0312622  23.608   4.471  10.114  0.7555 -0.3232  0.3290
 1403UNK    C0412623  23.593   4.564  10.225 -0.4606  0.2549  0.0767
 1403UNK    F0512624  23.490   4.541  10.303  0.0160 -0.2024  0.5587
 1403UNK    F0612625  23.703   4.585  10.300  0.2043 -0.0992 -0.0890
 1403UNK    F0712626  23.565   4.682  10.168 -0.5422 -0.3936 -0.1331
 1403UNK    H0812627  23.646   4.519  10.025  0.9467  0.5399  0.8681
 1404UNK    F0012628  25.656   0.245  10.123  0.9270  0.5231  0.4994
 1404UNK    C0112629  25.644   0.217   9.995 -0.1058  0.8321 -0.5685
 1404UNK    H0212630  25.546   0.185   9.962  0.7836 -0.5802 -1.9182
 1404UNK    C0312631  25.748   0.191   9.922  0.0810  0.6319 -0.3977
 1404UNK    C0412632  25.743   0.144   9.784  0.1162  0.1710 -0.5173
 1404UNK    F0512633  25.635   0.082   9.740  0.3473 -0.7592 -0.1078
 1404UNK    F0612634  25.767   0.251   9.705 -0.0624  0.4352  0.5891
 1404UNK    F0712635  25.841   0.056   9.764  0.5314  0.2487 -0.5136
 1404UNK    H0812636  25.845   0.227   9.956 -0.8078  2.8381 -0.1008
 1405UNK    F0012637  25.470   4.360   7.331 -0.2351  0.2406  0.3266
 1405UNK    C0112638  25.446   4.386   7.458 -0.0335  1.2221 -0.8188
 1405UNK    H0212639  25.366   4.323   7.498  1.4666  0.0814  0.4232
 1405UNK    C0312640  25.513   4.472   7.531 -0.1069  0.6776  0.0150
 1405UNK    C0412641  25.496   4.502   7.677 -0.8752  0.5352 -0.3912
 1405UNK    F0512642  25.365   4.514   7.709 -0.0695  0.4201 -0.0368
 1405UNK    F0612643  25.558   4.408   7.750  0.1007  0.5011 -0.0898
 1405UNK    F0712644  25.552   4.619   7.712  0.5527 -1.1374  0.4755
 1405UNK    H0812645  25.557   4.552   7.474 -3.7319  1.8203 -1.3730
 1406UNK    F0012646  26.939   4.734   9.197  0.7126  0.4112 -0.0689
 1406UNK    C0112647  27.035   4.669   9.263 -0.5878  0.0053  0.9254
 1406UNK    H0212648  27.086   4.599   9.197 -2.2407  1.0334 -1.5434
 1406UNK    C0312649  27.102   4.747   9.346  0.0807 -0.3427 -0.3732
 1406UNK    C0412650  27.243   4.724   9.388 -0.1318 -0.2010 -0.5386
 1406UNK    F0512651  27.269   4.593   9.389 -0.2314  0.7359 -0.2276
 1406UNK    F0612652  27.322   4.794   9.297 -0.2889 -0.4635 -0.4293
 1406UNK    F0712653  27.278   4.776   9.510  0.2673 -0.6232  0.3552
 1406UNK    H0812654  27.043   4.795   9.422  1.5467  1.5959 -0.4044
 1407UNK    F0012655  28.002   2.718  10.511 -0.4561  0.3166  0.4316
 1407UNK    C0112656  27.997   2.844  10.487 -0.3868  0.1590 -0.2812
 1407UNK    H0212657  28.058   2.896  10.561  1.2627 -0.5052 -1.1564
 1407UNK    C0312658  27.994   2.872  10.362 -0.1211 -0.4358  0.5636
 1407UNK    C0412659  27.870   2.898  10.285  0.3612  0.3713 -0.0317
 1407UNK    F0512660  27.824   3.024  10.308 -0.5735  0.1081  0.0995
 1407UNK    F0612661  27.896   2.894  10.149  0.5332  0.3508  0.6202
 1407UNK    F0712662  27.765   2.811  10.314  0.0955 -0.1978 -0.2013
 1407UNK    H0812663  28.081   2.854  10.300 -0.8108  0.2212 -0.6331
 1408UNK    F0012664  26.076   3.651  10.947 -0.4127  0.4340  0.1020
 1408UNK    C0112665  26.016   3.647  11.059 -0.0912  0.1017 -0.5735
 1408UNK    H0212666  26.020   3.740  11.116 -1.0157 -1.1255  1.5378
 1408UNK    C0312667  25.939   3.539  11.085 -0.0178  0.0163 -0.3067
 1408UNK    C0412668  25.836   3.533  11.190  0.0807 -0.1513 -0.1061
 1408UNK    F0512669  25.731   3.607  11.152 -0.1938 -0.2980 -0.0632
 1408UNK    F0612670  25.789   3.411  11.219  0.2981  0.7801 -0.0992
 1408UNK    F0712671  25.888   3.587  11.304  0.3513 -0.1093 -0.2295
 1408UNK    H0812672  25.927   3.474  10.999  0.2295 -0.4252 -0.0070
 1409UNK    F0012673  27.601   1.727  10.354  0.3206  0.4352  0.1713
 1409UNK    C0112674  27.697   1.813  10.326 -0.1277  0.1717 -0.0363
 1409UNK    H0212675  27.679   1.863  10.231  1.1607 -2.9055 -1.9561
 1409UNK    C0312676  27.809   1.819  10.399 -0.3222 -1.0874 -0.1329
 1409UNK    C0412677  27.930   1.896  10.370 -0.2411 -0.5301  0.2316
 1409UNK    F0512678  27.913   1.957  10.254 -0.2396 -0.2126  0.4200
 1409UNK    F0612679  27.958   2.000  10.455  0.1208  0.2052  0.0702
 1409UNK    F0712680  28.045   1.820  10.355 -0.1813 -0.0682 -0.2523
 1409UNK    H0812681  27.835   1.732  10.456  0.3019 -0.6482  0.2670
 1410UNK    F0012682  26.840   2.469  11.131 -0.9122  0.2098  0.1350
 1410UNK    C0112683  26.914   2.521  11.230  0.4095 -0.4883 -0.6880
 1410UNK    H0212684  26.898   2.462  11.320 -3.5700  1.4875 -0.0018
 1410UNK    C0312685  26.979   2.639  11.215  0.8552  0.0341  0.0957
 1410UNK    C0412686  27.093   2.676  11.295 -0.1271 -0.4101  0.3887
 1410UNK    F0512687  27.213   2.637  11.246  0.3096 -0.3098  0.3455
 1410UNK    F0612688  27.102   2.801  11.328  0.3810 -0.1924 -0.3362
 1410UNK    F0712689  27.067   2.627  11.417  0.1105 -0.0344 -0.2363
 1410UNK    H0812690  26.920   2.723  11.181 -0.4056 -1.1897 -0.8305
 1411UNK    F0012691  29.651   2.228  10.374  0.3552  0.3263  0.2307
 1411UNK    C0112692  29.728   2.146  10.303  0.6539  0.3080 -0.0346
 1411UNK    H0212693  29.737   2.050  10.355  0.5470  1.6536  2.5608
 1411UNK    C0312694  29.823   2.199  10.222  0.3411  0.2947  0.6492
 1411UNK    C0412695  29.860   2.146  10.087  0.1166 -0.0209  0.2786
 1411UNK    F0512696  29.963   2.224  10.035 -0.4648  0.1783  0.2959
 1411UNK    F0612697  29.911   2.016  10.082 -0.2365  0.1844 -0.0191
 1411UNK    F0712698  29.765   2.164   9.997  0.5803  0.1655  0.3062
 1411UNK    H0812699  29.869   2.295  10.242  0.9048  0.0500  0.5376
 1412UNK    F0012700  25.543   4.144   8.896 -0.2708 -0.0819  0.1707
 1412UNK    C0112701  25.441   4.185   8.966  0.0629  0.2989  0.1014
 1412UNK    H0212702  25.409   4.281   8.925 -0.9372  1.1680  2.7976
 1412UNK    C0312703  25.365   4.087   9.012  0.5407 -0.4323  0.5356
 1412UNK    C0412704  25.349   3.963   8.940  1.1948 -0.1825  0.1844
 1412UNK    F0512705  25.465   3.895   8.944 -0.1414 -0.3453 -0.5437
 1412UNK    F0612706  25.262   3.886   9.014 -0.1360  0.7209 -0.0040
 1412UNK    F0712707  25.296   3.983   8.818  0.3113 -0.3564  0.3171
 1412UNK    H0812708  25.347   4.082   9.118 -1.5765 -0.3376  0.1967
 1413UNK    F0012709  27.314   2.820  10.626 -0.1365 -0.6815 -0.3276
 1413UNK    C0112710  27.370   2.821  10.745  0.2793  0.3072  0.0431
 1413UNK    H0212711  27.444   2.741  10.751 -2.3638 -2.2107  0.1994
 1413UNK    C0312712  27.343   2.919  10.826 -0.5108 -0.2173  0.5658
 1413UNK    C0412713  27.231   2.924  10.915  0.5834 -0.1394 -0.1405
 1413UNK    F0512714  27.247   2.850  11.021 -0.2786  0.4740 -0.4117
 1413UNK    F0612715  27.226   3.051  10.967 -0.8512  0.5208 -0.4577
 1413UNK    F0712716  27.116   2.906  10.849  0.3153 -0.0313  0.6230
 1413UNK    H0812717  27.373   3.019  10.798  0.6052 -0.4074  1.0280
 1414UNK    F0012718  24.851   4.910  11.040 -0.4505  0.0934  0.2593
 1414UNK    C0112719  24.772   5.002  11.087 -0.3372  0.5329 -0.7295
 1414UNK    H0212720  24.683   4.956  11.129  0.6500 -0.8121 -0.0940
 1414UNK    C0312721  24.798   5.131  11.064  0.2085 -0.2408 -0.1483
 1414UNK    C0412722  24.747   5.250  11.137 -0.3163 -0.5879  0.2421
 1414UNK    F0512723  24.618   5.284  11.105 -0.4679 -0.3686 -0.0349
 1414UNK    F0612724  24.756   5.222  11.269  0.2709  0.1322 -0.2777
 1414UNK    F0712725  24.825   5.358  11.124 -0.3301  0.0564  0.3559
 1414UNK    H0812726  24.829   5.157  10.963 -1.4234  0.3005 -0.5227
 1415UNK    F0012727  27.407   2.731   9.942 -0.7084 -0.1504  0.2837
 1415UNK    C0112728  27.501   2.747  10.036 -0.2419 -0.8149  0.1101
 1415UNK    H0212729  27.603   2.727  10.006 -0.4475 -1.5850 -0.0927
 1415UNK    C0312730  27.470   2.803  10.153 -0.3535 -0.0645  0.7882
 1415UNK    C0412731  27.421   2.727  10.264 -0.3964  0.8711 -0.1697
 1415UNK    F0512732  27.391   2.801  10.371  0.2706 -0.2417 -0.1655
 1415UNK    F0612733  27.305   2.660  10.247 -0.4627 -0.1418 -0.3473
 1415UNK    F0712734  27.519   2.642  10.297 -0.4923  0.2167 -0.0186
 1415UNK    H0812735  27.490   2.908  10.163  0.1203 -0.0969  0.2174
 1416UNK    F0012736  26.924   2.018  11.874  0.1172  0.5156 -0.1127
 1416UNK    C0112737  27.021   1.928  11.864 -0.0802  0.0996 -0.5830
 1416UNK    H0212738  26.999   1.855  11.942  1.3896  2.5115  2.1960
 1416UNK    C0312739  27.117   1.938  11.773 -0.2657  1.1083 -0.0844
 1416UNK    C0412740  27.161   1.819  11.702  0.8257  0.0448  0.1184
 1416UNK    F0512741  27.297   1.806  11.678  0.0607 -0.1889  0.6553
 1416UNK    F0612742  27.136   1.703  11.760  0.2588  0.1594 -0.4262
 1416UNK    F0712743  27.087   1.815  11.588 -0.6097 -0.2886  0.7433
 1416UNK    H0812744  27.152   2.032  11.734 -1.7098  1.3493 -0.8208
 1417UNK    F0012745  27.428   2.231   9.848  0.1580 -0.0575  0.4320
 1417UNK    C0112746  27.339   2.123   9.820 -0.1533  0.5902  0.4474
 1417UNK    H0212747  27.303   2.082   9.914  3.6849 -1.9175  0.9522
 1417UNK    C0312748  27.312   2.085   9.695 -0.3969  0.8642  0.0581
 1417UNK    C0412749  27.413   1.997   9.628  0.3608  0.3099  0.3443
 1417UNK    F0512750  27.464   1.892   9.696 -0.2646 -0.4503 -0.3564
 1417UNK    F0612751  27.352   1.942   9.518 -0.3002  0.3290 -0.3549
 1417UNK    F0712752  27.517   2.068   9.582  0.0477 -0.1866  0.0948
 1417UNK    H0812753  27.275   2.160   9.626  1.7728  2.6384  0.7272
 1418UNK    F0012754  24.487   3.796   8.995 -0.3162 -0.2426 -0.1290
 1418UNK    C0112755  24.396   3.715   9.061 -0.3703  0.0454 -0.0798
 1418UNK    H0212756  24.422   3.699   9.165 -1.2251 -2.0464 -0.1719
 1418UNK    C0312757  24.291   3.676   8.984 -0.4858 -0.2786  0.0009
 1418UNK    C0412758  24.159   3.649   9.045  0.1905 -0.0666  0.1446
 1418UNK    F0512759  24.184   3.551   9.131  0.8028 -0.0286  0.5050
 1418UNK    F0612760  24.108   3.767   9.099  0.4342  0.4217  0.3771
 1418UNK    F0712761  24.083   3.608   8.944 -0.1967 -0.3433  0.2767
 1418UNK    H0812762  24.308   3.660   8.879  0.0301 -4.8128  0.6640
 1419UNK    F0012763  23.346   2.639   9.482  0.1988 -0.2655  0.1476
 1419UNK    C0112764  23.345   2.532   9.561  0.7580  0.4064  0.1369
 1419UNK    H0212765  23.447   2.495   9.565  0.4347 -0.6127 -0.6950
 1419UNK    C0312766  23.242   2.475   9.619 -0.6625  0.0088  0.5098
 1419UNK    C0412767  23.256   2.378   9.730  0.5711 -0.4553 -1.0153
 1419UNK    F0512768  23.143   2.315   9.762  0.4737 -0.3536  0.3491
 1419UNK    F0612769  23.343   2.278   9.704  0.0230  0.7028 -0.3031
 1419UNK    F0712770  23.297   2.446   9.845  0.6211 -0.7029 -0.3219
 1419UNK    H0812771  23.164   2.437   9.555  0.3098 -1.0009 -0.0785
 1420UNK    F0012772  26.811   2.579  10.161 -0.1268  0.3318 -0.2939
 1420UNK    C0112773  26.874   2.529  10.054 -0.5060 -0.1146 -0.1786
 1420UNK    H0212774  26.886   2.610   9.982 -0.7813 -0.1896 -0.3112
 1420UNK    C0312775  26.943   2.414  10.066  0.0116  0.3771  0.1053
 1420UNK    C0412776  27.032   2.352   9.969 -0.7180  0.2389 -0.6240
 1420UNK    F0512777  27.023   2.218   9.976 -0.0603 -0.2530  0.5376
 1420UNK    F0612778  27.010   2.386   9.840 -0.0851 -0.0518 -0.3143
 1420UNK    F0712779  27.161   2.376  10.007  0.1247 -0.3536 -0.3567
 1420UNK    H0812780  26.929   2.343  10.146  0.7485 -0.4804 -0.5121
 1421UNK    F0012781  26.760   1.076  11.205 -0.1070  0.2499 -0.1032
 1421UNK    C0112782  26.797   1.043  11.085 -0.2999  0.2010 -0.1414
 1421UNK    H0212783  26.761   0.942  11.066 -0.0916 -0.2771  1.9330
 1421UNK    C0312784  26.870   1.123  11.010 -0.0433  0.4798  0.4611
 1421UNK    C0412785  26.896   1.094  10.869 -0.5713  0.4202  0.2144
 1421UNK    F0512786  26.994   1.181  10.834 -0.1676 -0.1867  0.2542
 1421UNK    F0612787  26.961   0.972  10.861 -0.0651  0.2459  0.1431
 1421UNK    F0712788  26.794   1.112  10.779  0.0642 -0.3313  1.1544
 1421UNK    H0812789  26.882   1.226  11.041  0.3227  0.9540 -1.1787
 1422UNK    F0012790  26.284   1.923  11.160 -0.2091  0.2952  0.1932
 1422UNK    C0112791  26.211   1.854  11.248 -0.1550 -0.1415 -0.5672
 1422UNK    H0212792  26.132   1.917  11.289  1.0539  1.2269 -0.2947
 1422UNK    C0312793  26.204   1.722  11.242 -0.5977  0.0867  0.8991
 1422UNK    C0412794  26.099   1.645  11.316 -0.0957  0.0761  1.0564
 1422UNK    F0512795  26.129   1.519  11.302 -0.2117  0.1538  0.2882
 1422UNK    F0612796  26.082   1.666  11.445 -0.4455 -0.2441 -0.1637
 1422UNK    F0712797  25.983   1.658  11.246  0.4063 -0.0338 -0.4571
 1422UNK    H0812798  26.300   1.674  11.242 -0.9747 -0.7028 -0.4303
 1423UNK    F0012799  27.087   3.949   9.632  0.1077 -0.2777 -0.2457
 1423UNK    C0112800  27.215   3.959   9.580  1.3163  0.2135 -0.1920
 1423UNK    H0212801  27.250   3.864   9.541  1.1199 -0.1252  0.4444
 1423UNK    C0312802  27.257   4.079   9.544  0.0466  0.2808  0.3551
 1423UNK    C0412803  27.219   4.156   9.419  0.4996 -0.2202  0.0209
 1423UNK    F0512804  27.111   4.232   9.436  0.3233 -0.8630  0.2986
 1423UNK    F0612805  27.324   4.237   9.383  0.5904 -0.0068 -0.2030
 1423UNK    F0712806  27.203   4.069   9.314 -0.8788  0.0658  0.3105
 1423UNK    H0812807  27.331   4.125   9.608  0.8699 -1.3040  0.5656
 1424UNK    F0012808  25.099   1.727  11.286  0.0824  0.1393 -0.4459
 1424UNK    C0112809  25.106   1.708  11.156 -0.1887  0.0920 -0.7262
 1424UNK    H0212810  25.135   1.800  11.105 -0.2190  0.8799  0.6559
 1424UNK    C0312811  25.107   1.578  11.116  0.0380 -0.7678  0.0572
 1424UNK    C0412812  25.208   1.513  11.033  0.7705 -0.4991 -0.0804
 1424UNK    F0512813  25.170   1.387  10.996  0.0739 -0.0603 -0.3469
 1424UNK    F0612814  25.229   1.590  10.921  0.2631 -0.2637  0.1437
 1424UNK    F0712815  25.324   1.498  11.102 -0.1128 -0.5114  0.2767
 1424UNK    H0812816  25.015   1.522  11.111  0.0839 -0.8047 -0.4222
 1425UNK    F0012817  26.235   1.419  10.790 -0.0285  0.1749  0.0889
 1425UNK    C0112818  26.198   1.400  10.919 -0.9960 -0.1489  0.0674
 1425UNK    H0212819  26.209   1.492  10.975  1.0341  1.0327 -2.1755
 1425UNK    C0312820  26.172   1.280  10.962 -0.0476  0.7338 -0.0192
 1425UNK    C0412821  26.156   1.243  11.105 -0.1120  0.1352  0.0836
 1425UNK    F0512822  26.156   1.106  11.117 -0.4896 -0.5164 -0.1525
 1425UNK    F0612823  26.263   1.278  11.179 -0.3993  0.4248  0.0985
 1425UNK    F0712824  26.050   1.293  11.157  0.8701 -0.1161 -0.2662
 1425UNK    H0812825  26.202   1.198  10.898  1.5123 -0.9826  2.8130
 1426UNK    F0012826  27.251   0.995  10.782 -0.6169 -0.3554 -0.1580
 1426UNK    C0112827  27.222   0.876  10.735  0.3458  0.6785 -0.1793
 1426UNK    H0212828  27.131   0.832  10.777  1.5846 -1.3942  0.4111
 1426UNK    C0312829  27.311   0.813  10.668 -0.1795 -0.2920  0.3578
 1426UNK    C0412830  27.292   0.697  10.578  0.0193  0.9445  0.6064
 1426UNK    F0512831  27.306   0.751  10.457 -0.0536  0.1816  0.5942
 1426UNK    F0612832  27.390   0.598  10.596  0.3201 -0.2044  1.3644
 1426UNK    F0712833  27.166   0.636  10.592 -0.3216  0.4061  0.2174
 1426UNK    H0812834  27.401   0.866  10.641 -0.4377 -0.4587 -0.8675
 1427UNK    F0012835  26.469   2.343  11.068 -0.2743 -0.6766  0.0981
 1427UNK    C0112836  26.468   2.304  11.197 -0.0058  0.6680 -0.5101
 1427UNK    H0212837  26.572   2.297  11.228  0.1808 -0.4679 -1.3564
 1427UNK    C0312838  26.358   2.235  11.238  0.0624 -0.4058 -0.0475
 1427UNK    C0412839  26.298   2.240  11.374  0.7395 -0.3679 -1.4274
 1427UNK    F0512840  26.207   2.142  11.386  0.0736 -0.3705 -0.0034
 1427UNK    F0612841  26.391   2.230  11.474  1.0055 -0.6739  0.0278
 1427UNK    F0712842  26.240   2.362  11.401  0.1790 -0.0070 -0.2481
 1427UNK    H0812843  26.301   2.188  11.159  2.0367 -2.0393 -0.5646
 1428UNK    F0012844  26.636   5.176   9.904 -0.3500  0.4597  0.3856
 1428UNK    C0112845  26.512   5.195   9.951  0.0144 -0.1652 -0.1058
 1428UNK    H0212846  26.464   5.246   9.867 -0.2126 -2.8633 -1.6834
 1428UNK    C0312847  26.461   5.101  10.032 -0.7497 -0.1958  0.2484
 1428UNK    C0412848  26.345   5.131  10.123  0.4474 -0.2493  0.4710
 1428UNK    F0512849  26.237   5.087  10.054 -0.4554  0.0731  0.5247
 1428UNK    F0612850  26.347   5.073  10.244  0.4162  0.4650 -0.4258
 1428UNK    F0712851  26.332   5.263  10.140 -0.1545  0.0122  0.3004
 1428UNK    H0812852  26.466   4.998  10.002 -2.5363 -0.6142  1.3253
 1429UNK    F0012853  24.326   4.170   9.602 -0.2631  0.3537 -0.0348
 1429UNK    C0112854  24.240   4.149   9.501 -0.3855 -0.0890  0.1251
 1429UNK    H0212855  24.254   4.051   9.455 -0.7750 -0.5041  0.8880
 1429UNK    C0312856  24.173   4.248   9.452 -0.2503  0.5941  0.0150
 1429UNK    C0412857  24.057   4.240   9.364 -0.9439 -0.0069  0.2082
 1429UNK    F0512858  24.047   4.361   9.308 -0.1476 -0.0036 -0.3565
 1429UNK    F0612859  24.062   4.152   9.263  0.2305  0.4084 -0.3394
 1429UNK    F0712860  23.947   4.220   9.443 -0.4339 -0.5131  0.0096
 1429UNK    H0812861  24.221   4.344   9.445 -1.0030  0.9429 -0.4503
 1430UNK    F0012862  16.331   1.843  13.614 -0.4979  0.5177  0.5307
 1430UNK    C0112863  16.230   1.822  13.528 -0.1139  0.7408 -0.3447
 1430UNK    H0212864  16.250   1.746  13.452  1.8205  1.9290 -1.0554
 1430UNK    C0312865  16.146   1.925  13.510 -0.4559 -0.4263 -0.1347
 1430UNK    C0412866  16.013   1.904  13.458 -0.4293 -0.4380 -0.1368
 1430UNK    F0512867  15.956   2.025  13.453 -0.3995  0.5080  0.4681
 1430UNK    F0612868  16.025   1.862  13.329  0.2336  0.4008 -0.0954
 1430UNK    F0712869  15.933   1.824  13.533  0.1167 -0.1560 -0.1175
 1430UNK    H0812870  16.183   2.020  13.472 -1.0588  1.1847  3.1535
 1431UNK    F0012871  28.800   1.241   9.596  0.4407 -0.0251 -0.5908
 1431UNK    C0112872  28.903   1.212   9.522 -0.2373 -0.4414 -0.2005
 1431UNK    H0212873  28.873   1.184   9.421 -0.6603 -1.4311  0.1853
 1431UNK    C0312874  29.015   1.188   9.587 -0.6013 -0.5319 -0.3442
 1431UNK    C0412875  29.038   1.057   9.644  0.0373 -0.6526 -0.8279
 1431UNK    F0512876  29.073   0.966   9.553 -0.0538 -0.3534 -0.2411
 1431UNK    F0612877  29.136   1.064   9.737  0.5290  0.1154  0.1220
 1431UNK    F0712878  28.933   1.011   9.713 -0.1373 -0.1472 -0.1505
 1431UNK    H0812879  29.040   1.267   9.657  0.9846 -1.8046  0.5574
 1432UNK    F0012880  24.365   5.158  10.196 -0.0780  0.0626  0.4602
 1432UNK    C0112881  24.387   5.036  10.149  0.4339 -0.8944 -0.0472
 1432UNK    H0212882  24.315   5.011  10.071 -0.1979  0.7349 -0.0172
 1432UNK    C0312883  24.480   4.955  10.198 -0.0490  0.7736 -0.7332
 1432UNK    C0412884  24.519   4.828  10.129  0.1951 -0.2408 -1.0817
 1432UNK    F0512885  24.645   4.848  10.073 -0.1282  0.2333 -0.8661
 1432UNK    F0612886  24.539   4.725  10.210 -0.6985 -0.0463 -0.1086
 1432UNK    F0712887  24.433   4.781  10.039 -0.0935 -0.6189  0.1173
 1432UNK    H0812888  24.526   4.978  10.293 -1.4464 -2.2643  0.7450
 1433UNK    F0012889  27.277   1.418  11.161  0.3370 -0.0052  0.7595
 1433UNK    C0112890  27.332   1.542  11.139  0.0725 -0.2976 -0.4460
 1433UNK    H0212891  27.438   1.527  11.160  0.0901 -0.3034 -0.5429
 1433UNK    C0312892  27.277   1.657  11.140  0.2337  0.1039  0.5451
 1433UNK    C0412893  27.261   1.741  11.259 -0.2112  0.4047  0.3630
 1433UNK    F0512894  27.180   1.838  11.228  0.1746 -0.4890 -0.3790
 1433UNK    F0612895  27.195   1.677  11.361  0.3327  0.2717  0.4189
 1433UNK    F0712896  27.376   1.777  11.320 -0.2680 -0.0866 -0.2602
 1433UNK    H0812897  27.191   1.658  11.076 -0.1040  0.3563  0.9989
 1434UNK    F0012898  24.636   3.155  10.238  0.6864  0.1079  0.0315
 1434UNK    C0112899  24.596   3.041  10.298  0.3342  0.1078  0.2048
 1434UNK    H0212900  24.501   3.049  10.352 -0.9403 -1.7369 -1.6731
 1434UNK    C0312901  24.695   2.958  10.304  0.1916  0.1537  0.1922
 1434UNK    C0412902  24.804   2.957  10.400 -0.7847 -0.4406 -0.1962
 1434UNK    F0512903  24.912   2.902  10.342  0.3401 -0.1421 -0.0700
 1434UNK    F0612904  24.828   3.090  10.425 -0.0415 -0.2108 -0.6490
 1434UNK    F0712905  24.760   2.885  10.507 -0.4380 -0.4246  0.0272
 1434UNK    H0812906  24.710   2.888  10.223 -1.2068 -0.5426  0.5285
 1435UNK    F0012907  27.367   4.109   9.828 -0.5300  0.2037 -0.3263
 1435UNK    C0112908  27.379   4.239   9.858  0.1646  0.4654  0.9260
 1435UNK    H0212909  27.392   4.250   9.965 -0.6685  0.9701  0.9743
 1435UNK    C0312910  27.327   4.321   9.762  0.7565  0.1458  0.2970
 1435UNK    C0412911  27.362   4.464   9.764  0.3112 -0.2874 -0.1712
 1435UNK    F0512912  27.264   4.524   9.690 -0.2474 -0.1911 -0.0963
 1435UNK    F0612913  27.355   4.508   9.892 -0.2617 -0.3110  0.3051
 1435UNK    F0712914  27.481   4.489   9.704 -0.3404 -0.1067 -0.1156
 1435UNK    H0812915  27.223   4.306   9.736  0.8026  1.2055 -0.4968
 1436UNK    F0012916  26.087   4.626   9.965  0.3829 -0.2268 -0.0256
 1436UNK    C0112917  26.015   4.722  10.026  0.6531 -0.2632  0.1786
 1436UNK    H0212918  26.073   4.777  10.100 -0.3743  0.3658  0.5194
 1436UNK    C0312919  25.887   4.702  10.040 -0.4238  0.0808  0.3314
 1436UNK    C0412920  25.833   4.596  10.122  0.4761  0.6517 -0.5449
 1436UNK    F0512921  25.701   4.584  10.108 -0.5175 -0.2923 -0.6676
 1436UNK    F0612922  25.882   4.470  10.092 -0.2302  0.3459 -0.0027
 1436UNK    F0712923  25.852   4.604  10.255 -0.2842 -0.3417 -0.2241
 1436UNK    H0812924  25.826   4.726   9.954  0.7337  1.1370 -0.2263
 1437UNK    F0012925  25.172   4.685   9.363 -0.0920 -0.0361 -0.5087
 1437UNK    C0112926  25.044   4.651   9.396  0.3281  0.7059  0.3750
 1437UNK    H0212927  24.975   4.722   9.351 -0.0755 -0.1822 -0.4454
 1437UNK    C0312928  25.018   4.587   9.509  0.1130 -0.3024 -0.1208
 1437UNK    C0412929  24.893   4.505   9.537  0.5774  0.2811  0.0120
 1437UNK    F0512930  24.919   4.376   9.575 -0.1978 -0.1120  0.6072
 1437UNK    F0612931  24.814   4.556   9.637 -0.0496  0.0611  0.2147
 1437UNK    F0712932  24.825   4.484   9.420 -0.0051 -0.5018 -0.0605
 1437UNK    H0812933  25.063   4.631   9.597 -3.6328  2.1639  0.6986
 1438UNK    F0012934  24.208   4.702   8.709 -0.5092 -0.1387  0.3083
 1438UNK    C0112935  24.206   4.573   8.681  0.0307  0.0303  0.4945
 1438UNK    H0212936  24.283   4.554   8.606 -1.0199 -1.7749 -0.1696
 1438UNK    C0312937  24.101   4.501   8.721  0.2763  0.2699  0.0180
 1438UNK    C0412938  23.969   4.494   8.662 -0.2482 -0.2011  0.3131
 1438UNK    F0512939  23.980   4.433   8.544  0.1998  0.3201 -0.0219
 1438UNK    F0612940  23.887   4.407   8.731 -0.6232 -0.2310  0.1639
 1438UNK    F0712941  23.903   4.613   8.641 -0.4614 -0.3633  0.4506
 1438UNK    H0812942  24.104   4.437   8.809  0.4398  0.5380  0.2073
 1439UNK    F0012943  29.264   0.578   8.262 -0.0811  0.4426 -0.3499
 1439UNK    C0112944  29.351   0.622   8.170 -0.3485  0.2911  0.5265
 1439UNK    H0212945  29.443   0.564   8.173 -1.1033 -1.0817 -1.2869
 1439UNK    C0312946  29.339   0.744   8.118 -0.2717  0.1308 -0.0404
 1439UNK    C0412947  29.419   0.800   8.008 -0.2363 -0.2782 -0.2075
 1439UNK    F0512948  29.377   0.768   7.886 -0.1013 -0.3894 -0.3796
 1439UNK    F0612949  29.420   0.934   8.017 -0.3694 -0.2474  0.1133
 1439UNK    F0712950  29.552   0.764   8.016  0.3312  0.2603 -0.7242
 1439UNK    H0812951  29.273   0.814   8.166 -1.8848 -1.9553  0.8324
 1440UNK    F0012952  26.553   2.474  10.773  0.3284 -0.2690 -0.3666
 1440UNK    C0112953  26.596   2.578  10.844  0.6129 -0.2733  0.4189
 1440UNK    H0212954  26.704   2.590  10.842  0.8559 -2.3639 -0.9359
 1440UNK    C0312955  26.508   2.655  10.906 -0.2119  0.5682 -0.1532
 1440UNK    C0412956  26.502   2.804  10.900  0.0762 -0.1285  0.0315
 1440UNK    F0512957  26.409   2.859  10.817  0.1150  0.1878  0.6331
 1440UNK    F0612958  26.457   2.846  11.021 -0.3426 -0.2974 -0.2215
 1440UNK    F0712959  26.624   2.872  10.888  0.1374 -0.1147 -0.2490
 1440UNK    H0812960  26.417   2.608  10.938 -0.8901  0.9611 -1.4735
 1441UNK    F0012961  26.860   3.857  12.626 -0.1396 -0.3386  0.0696
 1441UNK    C0112962  26.962   3.792  12.572 -0.0326  0.2269 -1.0034
 1441UNK    H0212963  27.017   3.846  12.495  1.4785  0.6904  0.3954
 1441UNK    C0312964  27.000   3.685  12.625 -0.3714  0.2918 -0.0403
 1441UNK    C0412965  27.128   3.615  12.596 -0.4674  0.2729 -1.0270
 1441UNK    F0512966  27.127   3.484  12.632  0.0104 -0.4922  0.2699
 1441UNK    F0612967  27.178   3.621  12.469  0.0218 -0.2474  0.4944
 1441UNK    F0712968  27.214   3.685  12.680  0.2515  0.6054  0.2823
 1441UNK    H0812969  26.953   3.655  12.718  0.8892  1.4840  1.0078
 1442UNK    F0012970  24.968   4.703   9.956  0.1891  0.9827 -0.3481
 1442UNK    C0112971  24.942   4.771  10.072 -0.6633  0.1127  0.2284
 1442UNK    H0212972  24.844   4.759  10.118 -1.0266  2.7152  0.1695
 1442UNK    C0312973  25.054   4.801  10.137 -0.3248 -0.1407 -0.3013
 1442UNK    C0412974  25.053   4.835  10.281  0.1512 -0.2433 -0.4372
 1442UNK    F0512975  25.172   4.845  10.343  0.6496  0.2773  0.2203
 1442UNK    F0612976  24.984   4.950  10.288 -0.2906 -0.5520  0.2656
 1442UNK    F0712977  24.979   4.750  10.356  0.2027  0.7412 -0.8045
 1442UNK    H0812978  25.154   4.782  10.100  0.7911  1.2284  1.8979
 1443UNK    F0012979  26.744   0.096   9.453  0.1652  0.3793 -0.0627
 1443UNK    C0112980  26.666   0.206   9.478  0.0514 -0.2277 -0.5073
 1443UNK    H0212981  26.713   0.262   9.559 -2.7684 -0.9536  1.7024
 1443UNK    C0312982  26.602   0.262   9.370  0.0176 -1.1496  0.2458
 1443UNK    C0412983  26.671   0.305   9.244 -0.1500 -0.3220  0.3728
 1443UNK    F0512984  26.732   0.195   9.200 -0.2057 -0.3851  0.1208
 1443UNK    F0612985  26.598   0.348   9.144  0.1141  0.3176 -0.1024
 1443UNK    F0712986  26.758   0.409   9.262  0.6323  0.1213  0.0056
 1443UNK    H0812987  26.514   0.320   9.392  1.2490  0.9637 -0.2001
 1444UNK    F0012988  24.835   3.634  10.264  0.0571  0.1824  0.2567
 1444UNK    C0112989  24.848   3.719  10.165 -0.7936  0.3718 -0.5156
 1444UNK    H0212990  24.920   3.798  10.188 -0.3061  0.0978 -1.0882
 1444UNK    C0312991  24.759   3.734  10.070 -0.0645 -0.4384  0.2774
 1444UNK    C0412992  24.790   3.808   9.942 -0.0340  0.0488  0.3216
 1444UNK    F0512993  24.876   3.905   9.964  0.1637  0.0577 -0.3412
 1444UNK    F0612994  24.859   3.740   9.844  0.4507 -0.0905 -0.1625
 1444UNK    F0712995  24.677   3.865   9.888  0.1338  0.0433 -0.4176
 1444UNK    H0812996  24.654   3.710  10.077  0.1587 -0.8778  2.3733
 1445UNK    F0012997  25.440   0.870   9.973 -0.1954  0.2533  0.4624
 1445UNK    C0112998  25.515   0.928  10.065 -0.4146 -0.2306  0.4799
 1445UNK    H0212999  25.448   0.924  10.151 -0.5199  0.1788  0.4160
 1445UNK    C0313000  25.577   1.047  10.041 -0.1901 -0.0724 -0.0302
 1445UNK    C0413001  25.681   1.084  10.130 -0.1454  0.2495 -0.1112
 1445UNK    F0513002  25.652   1.060  10.259  0.1998  0.0413 -0.3505
 1445UNK    F0613003  25.795   1.016  10.106  0.1885 -0.3363  0.3312
 1445UNK    F0713004  25.697   1.218  10.123 -0.1635  0.3425  0.2862
 1445UNK    H0813005  25.601   1.068   9.938 -2.1975  1.3820 -0.2349
 1446UNK    F0013006  23.859   5.106   9.355 -0.0058  0.1386  0.2193
 1446UNK    C0113007  23.849   5.194   9.257 -0.3761  0.3502  0.1611
 1446UNK    H0213008  23.942   5.211   9.203 -0.5751  3.0895  0.6562
 1446UNK    C0313009  23.725   5.238   9.217  0.1486 -0.4764  0.0384
 1446UNK    C0413010  23.696   5.307   9.089  0.2296  0.3615 -0.6251
 1446UNK    F0513011  23.794   5.369   9.028  0.1274 -0.1347 -0.2732
 1446UNK    F0613012  23.644   5.221   9.001  0.2709 -0.2655  0.0280
 1446UNK    F0713013  23.608   5.407   9.102 -0.1635  0.3564  0.1792
 1446UNK    H0813014  23.658   5.271   9.295  0.0482  0.9030 -0.6137
 1447UNK    F0013015  26.335   0.403   3.166  0.3973 -0.4463  0.3673
 1447UNK    C0113016  26.238   0.443   3.077  0.1133  0.7505  0.0561
 1447UNK    H0213017  26.158   0.490   3.133  0.5672  0.1009  1.2557
 1447UNK    C0313018  26.272   0.432   2.947  0.0781 -0.3797  0.0694
 1447UNK    C0413019  26.409   0.436   2.893  0.8527 -0.0186  0.6601
 1447UNK    F0513020  26.449   0.310   2.889  0.3525 -0.3990 -0.0705
 1447UNK    F0613021  26.412   0.489   2.770 -0.1443  0.3043  0.3516
 1447UNK    F0713022  26.489   0.499   2.979 -0.2117 -0.1869  0.1642
 1447UNK    H0813023  26.194   0.394   2.883 -0.8825 -0.0794  1.0391
 1448UNK    F0013024  35.368   0.174   9.977  0.6015  0.2787 -0.3778
 1448UNK    C0113025  35.497   0.216   9.945 -0.2001  0.0249 -0.1394
 1448UNK    H0213026  35.547   0.263  10.030  1.6961  2.9005 -2.7531
 1448UNK    C0313027  35.533   0.204   9.821  0.1096 -0.4447 -0.3189
 1448UNK    C0413028  35.671   0.208   9.769  0.3635  0.1224  0.4066
 1448UNK    F0513029  35.661   0.213   9.632  0.4451  0.1535  0.0338
 1448UNK    F0613030  35.727   0.319   9.812 -0.0600 -0.3877 -0.2797
 1448UNK    F0713031  35.745   0.097   9.807  0.2949 -0.0113 -0.0130
 1448UNK    H0813032  35.457   0.170   9.751 -1.3217  0.5070  0.7453
 1449UNK    F0013033  28.498   2.823   3.498  0.0034 -0.5852  0.5641
 1449UNK    C0113034  28.442   2.795   3.614  0.1724 -0.0752 -0.5112
 1449UNK    H0213035  28.336   2.772   3.602  0.0365  0.7849 -0.9598
 1449UNK    C0313036  28.506   2.784   3.729 -1.0685 -0.8907  0.1104
 1449UNK    C0413037  28.564   2.894   3.802  0.7795 -0.1728 -0.2064
 1449UNK    F0513038  28.647   2.858   3.908 -0.1933  0.1464 -0.2126
 1449UNK    F0613039  28.653   2.962   3.727  0.1259  0.2564 -0.1754
 1449UNK    F0713040  28.468   2.982   3.851 -0.2106  0.2399 -0.0042
 1449UNK    H0813041  28.582   2.709   3.746 -0.9981 -0.6166  1.0386
 1450UNK    F0013042  25.111   3.049   4.177  0.1385 -0.3214 -0.0241
 1450UNK    C0113043  25.244   3.071   4.186 -0.3612  0.0212  0.1784
 1450UNK    H0213044  25.262   3.126   4.278  0.4197  0.4545 -0.2243
 1450UNK    C0313045  25.321   2.970   4.163 -0.5207  0.3071  0.6635
 1450UNK    C0413046  25.351   2.932   4.024 -0.0105  0.1490  0.2721
 1450UNK    F0513047  25.286   3.013   3.936  0.2363  0.0951 -0.0993
 1450UNK    F0613048  25.474   2.963   3.996 -0.3426 -0.0280 -0.9814
 1450UNK    F0713049  25.323   2.799   4.013  0.1024  0.5132  0.7137
 1450UNK    H0813050  25.368   2.914   4.243  2.6790  1.0193 -0.6176
 1451UNK    F0013051  25.951   0.151   4.061  0.2112 -0.1226 -0.3433
 1451UNK    C0113052  25.904   0.078   3.958  0.4165  0.2558  0.1105
 1451UNK    H0213053  25.912   0.125   3.860 -1.5813 -3.6860 -2.0426
 1451UNK    C0313054  25.803  -0.001   3.995  0.0610  0.0608 -0.0617
 1451UNK    C0413055  25.787  -0.131   3.929  0.5313  0.7049  0.3703
 1451UNK    F0513056  25.793  -0.128   3.793  0.2677 -0.4408 -0.1184
 1451UNK    F0613057  25.872  -0.226   3.974 -0.4021  0.5392 -0.4111
 1451UNK    F0713058  25.662  -0.179   3.955 -0.4308 -0.4742  0.1262
 1451UNK    H0813059  25.785  -0.014   4.100 -0.0236  1.2694  0.0809
 1452UNK    F0013060  25.532   0.801   0.811  0.0019  0.3732  0.2822
 1452UNK    C0113061  25.630   0.730   0.750 -1.0176  0.0674 -0.9073
 1452UNK    H0213062  25.710   0.744   0.823 -0.5968 -3.3124 -0.6804
 1452UNK    C0313063  25.626   0.672   0.630 -0.2180  0.4986 -0.3696
 1452UNK    C0413064  25.700   0.548   0.603 -0.1950 -0.1692  0.8099
 1452UNK    F0513065  25.651   0.443   0.668  0.3993  0.3203  0.6702
 1452UNK    F0613066  25.693   0.522   0.472  0.4051  0.8546  0.0776
 1452UNK    F0713067  25.835   0.560   0.638  0.1692 -0.0573  0.1154
 1452UNK    H0813068  25.535   0.679   0.573 -0.7857  0.5539  0.5339
 1453UNK    F0013069  22.979   5.184   5.617  0.0467  0.7361 -0.4686
 1453UNK    C0113070  22.949   5.051   5.639  0.3786 -0.4513 -0.6054
 1453UNK    H0213071  22.851   5.051   5.688 -0.0948 -4.4582 -1.4066
 1453UNK    C0313072  22.981   4.967   5.540  0.6673  0.4146 -0.2312
 1453UNK    C0413073  22.958   5.010   5.402 -0.8229  1.3197  0.0127
 1453UNK    F0513074  23.066   5.074   5.353  0.1615  0.7858  0.1275
 1453UNK    F0613075  22.948   4.899   5.320 -0.1930 -0.2793  0.3226
 1453UNK    F0713076  22.851   5.089   5.376 -0.4536 -0.7000  0.2669
 1453UNK    H0813077  22.949   4.864   5.552  0.3543  0.3320 -1.7072
 1454UNK    F0013078  25.803   0.101   4.931  0.0047 -0.4006  0.0810
 1454UNK    C0113079  25.704   0.159   4.997 -0.3538  0.5774  0.3181
 1454UNK    H0213080  25.735   0.239   5.063 -1.3122  0.8507  0.4443
 1454UNK    C0313081  25.584   0.162   4.933 -0.7344 -0.8417  0.0914
 1454UNK    C0413082  25.467   0.245   4.959 -0.4550 -0.0339 -0.1669
 1454UNK    F0513083  25.501   0.380   4.965  0.2871  0.1555  0.5080
 1454UNK    F0613084  25.387   0.226   4.849 -0.2065 -0.0997  0.0708
 1454UNK    F0713085  25.397   0.200   5.067  0.0306  0.4430  0.0706
 1454UNK    H0813086  25.552   0.074   4.878  0.7196 -1.7265  0.6510
 1455UNK    F0013087  29.072   1.407   5.761 -0.2485  0.0768 -0.2751
 1455UNK    C0113088  28.997   1.519   5.752  0.0293 -0.6043 -1.1343
 1455UNK    H0213089  29.022   1.591   5.830 -1.1890  0.4380 -1.6851
 1455UNK    C0313090  28.891   1.525   5.668  0.2209  0.6310  0.3170
 1455UNK    C0413091  28.748   1.532   5.719  0.4994 -0.0771 -0.8684
 1455UNK    F0513092  28.727   1.650   5.782  0.4566  0.3319  0.1614
 1455UNK    F0613093  28.666   1.520   5.611  0.0402  0.2029 -0.0065
 1455UNK    F0713094  28.719   1.437   5.815  0.1216  0.2798  0.1209
 1455UNK    H0813095  28.884   1.479   5.571 -0.4596 -1.5024  1.3391
 1456UNK    F0013096  26.293   1.084   6.782 -0.1268  0.5539  0.1379
 1456UNK    C0113097  26.174   1.029   6.786  0.1983 -0.5492 -0.5205
 1456UNK    H0213098  26.193   0.930   6.745  0.4501  0.1080 -2.0620
 1456UNK    C0313099  26.079   1.112   6.743  0.0938 -0.2399  0.7910
 1456UNK    C0413100  26.048   1.141   6.605  0.5074  0.4117  0.0675
 1456UNK    F0513101  25.956   1.059   6.561 -0.2731 -0.1467 -0.8119
 1456UNK    F0613102  25.988   1.265   6.613  0.8473  0.3346 -0.0208
 1456UNK    F0713103  26.150   1.147   6.519 -0.1890  0.3898  0.3719
 1456UNK    H0813104  26.054   1.197   6.805 -0.6771 -0.9281  1.4419
 1457UNK    F0013105  23.505   4.450   6.436  0.1249  0.1218  0.4723
 1457UNK    C0113106  23.609   4.371   6.449 -0.2104  0.5483  0.7527
 1457UNK    H0213107  23.667   4.422   6.525  0.0684  1.4739 -0.0641
 1457UNK    C0313108  23.597   4.245   6.412  0.2645 -0.6288  0.0200
 1457UNK    C0413109  23.661   4.143   6.497  0.8715 -0.1866 -0.4437
 1457UNK    F0513110  23.778   4.181   6.545  0.0052  0.0898  0.0582
 1457UNK    F0613111  23.586   4.094   6.607 -0.9173  0.3105 -0.3167
 1457UNK    F0713112  23.695   4.044   6.413 -0.0702 -0.4613  0.3201
 1457UNK    H0813113  23.509   4.209   6.361 -0.3936  2.0781 -0.8226
 1458UNK    F0013114  27.329   0.847   9.390  0.5065  0.5340  0.1673
 1458UNK    C0113115  27.364   0.889   9.267 -0.2447 -0.1453 -0.5056
 1458UNK    H0213116  27.387   0.995   9.256 -0.1087 -0.1742 -0.4926
 1458UNK    C0313117  27.322   0.806   9.179 -0.4951  0.9182  0.0396
 1458UNK    C0413118  27.386   0.790   9.047 -0.1995 -0.6886  0.4513
 1458UNK    F0513119  27.294   0.748   8.962 -0.0981  0.4495  0.2275
 1458UNK    F0613120  27.433   0.905   8.991  0.3365  0.4484  0.0679
 1458UNK    F0713121  27.483   0.698   9.060  0.8120 -0.3365  0.4830
 1458UNK    H0813122  27.234   0.745   9.192  0.2143 -0.0873  0.1752
 1459UNK    F0013123  27.539   4.806   6.669 -0.3345 -0.0338 -0.2682
 1459UNK    C0113124  27.607   4.696   6.703  0.0407  0.0291  0.4045
 1459UNK    H0213125  27.682   4.676   6.627  0.4921 -1.1424  1.1449
 1459UNK    C0313126  27.532   4.597   6.759  0.1784  1.3605  0.3303
 1459UNK    C0413127  27.546   4.453   6.726 -0.0716  0.3373 -0.0670
 1459UNK    F0513128  27.551   4.424   6.591 -0.2782 -0.0878 -0.3210
 1459UNK    F0613129  27.667   4.407   6.768 -0.1750  0.5706  0.0375
 1459UNK    F0713130  27.447   4.371   6.764 -0.4051  0.4495  0.6005
 1459UNK    H0813131  27.459   4.616   6.836 -1.1989 -0.4982 -0.4753
 1460UNK    F0013132  25.630   4.929   8.716 -0.0877 -0.1311  0.0187
 1460UNK    C0113133  25.721   4.917   8.618  0.5163 -0.0810 -0.4276
 1460UNK    H0213134  25.819   4.955   8.646  1.0512 -2.2528  0.7897
 1460UNK    C0313135  25.694   4.879   8.492 -0.4585 -0.4554  0.0728
 1460UNK    C0413136  25.666   4.980   8.389 -0.0712 -1.0730 -0.8147
 1460UNK    F0513137  25.576   4.918   8.306 -0.3228 -0.4791 -0.1110
 1460UNK    F0613138  25.603   5.097   8.434  0.0678  0.2621  0.0179
 1460UNK    F0713139  25.775   5.024   8.316 -0.6453  0.3125  0.3378
 1460UNK    H0813140  25.625   4.797   8.484  1.1027 -1.9584  1.4956
 1461UNK    F0013141  27.302   0.509   9.288  0.7288 -0.2344 -0.1541
 1461UNK    C0113142  27.369   0.393   9.318  0.6416 -0.7891  0.0126
 1461UNK    H0213143  27.341   0.343   9.411  0.1931  1.7269  1.2838
 1461UNK    C0313144  27.485   0.381   9.247  0.1773  0.6154 -0.3568
 1461UNK    C0413145  27.562   0.252   9.224  0.1507  0.0426 -0.4311
 1461UNK    F0513146  27.542   0.182   9.337  0.1561  0.1021 -0.4556
 1461UNK    F0613147  27.512   0.185   9.113  0.2716  0.4807 -0.1507
 1461UNK    F0713148  27.693   0.274   9.213  0.1511  0.1821 -0.4555
 1461UNK    H0813149  27.535   0.476   9.236  0.2353  0.5423 -0.7395
 1462UNK    F0013150  28.726   2.034   8.465  0.2710 -0.7372  0.2551
 1462UNK    C0113151  28.764   2.143   8.404  0.1115 -0.2236 -0.9390
 1462UNK    H0213152  28.811   2.117   8.309  0.5789 -4.0016  0.2488
 1462UNK    C0313153  28.762   2.259   8.474 -0.1522 -0.2349 -0.0791
 1462UNK    C0413154  28.880   2.307   8.551  0.1285 -0.4471  0.0343
 1462UNK    F0513155  28.971   2.374   8.472  0.3126 -0.0814 -0.3881
 1462UNK    F0613156  28.841   2.399   8.646  0.2880 -0.4691  0.6195
 1462UNK    F0713157  28.943   2.203   8.610 -0.3008 -0.3737 -0.0939
 1462UNK    H0813158  28.690   2.337   8.457 -0.2131 -0.6166 -1.6785
 1463UNK    F0013159  27.866   5.004   7.010 -0.3469  0.2160  0.6422
 1463UNK    C0113160  27.749   5.003   7.063 -0.1536 -0.2293  0.3241
 1463UNK    H0213161  27.761   5.047   7.163  0.0342  2.6010 -0.8946
 1463UNK    C0313162  27.672   4.901   7.033 -0.0711 -0.1538 -0.5946
 1463UNK    C0413163  27.673   4.773   7.099 -0.4155  0.5158  0.2107
 1463UNK    F0513164  27.614   4.777   7.219 -0.0133 -0.4003 -0.0363
 1463UNK    F0613165  27.583   4.701   7.027 -0.0775  0.8179  1.0775
 1463UNK    F0713166  27.789   4.704   7.109 -0.2974  0.2553 -0.0381
 1463UNK    H0813167  27.614   4.907   6.943  1.3606 -2.9015 -1.7901
 1464UNK    F0013168  28.694   0.939   9.881  0.2727  0.3893 -0.4523
 1464UNK    C0113169  28.622   0.888   9.779 -0.1065  0.2027 -0.4395
 1464UNK    H0213170  28.594   0.785   9.801 -1.1235  0.6464  0.3914
 1464UNK    C0313171  28.559   0.972   9.695  0.0346 -0.3000 -0.7953
 1464UNK    C0413172  28.468   0.924   9.587 -0.2588 -0.4672  0.2197
 1464UNK    F0513173  28.529   0.868   9.481 -0.0017 -0.8506 -0.0450
 1464UNK    F0613174  28.373   0.848   9.642 -0.0520  0.1098  0.3592
 1464UNK    F0713175  28.388   1.019   9.535 -0.0435  0.1002 -0.0993
 1464UNK    H0813176  28.594   1.072   9.673 -1.3723  0.0960 -1.3136
 1465UNK    F0013177  25.750   5.116   5.760  0.3210 -0.7242 -0.1107
 1465UNK    C0113178  25.849   5.215   5.774  0.4719  0.3008  0.3106
 1465UNK    H0213179  25.823   5.297   5.841 -1.1085  0.5269 -0.5367
 1465UNK    C0313180  25.926   5.238   5.667 -0.3960 -0.2677  0.6127
 1465UNK    C0413181  25.987   5.373   5.641  0.1095  0.1961  0.1482
 1465UNK    F0513182  25.893   5.469   5.646  0.4436  0.2844  0.4653
 1465UNK    F0613183  26.079   5.402   5.730 -0.8518 -0.0521  0.1073
 1465UNK    F0713184  26.040   5.376   5.517 -0.7275 -0.3692  0.4066
 1465UNK    H0813185  25.936   5.163   5.590 -1.3553 -0.3412  0.5508
 1466UNK    F0013186  25.644   0.627   6.502  0.6015  0.0490  0.1998
 1466UNK    C0113187  25.758   0.608   6.567 -0.3507 -0.0052  0.0078
 1466UNK    H0213188  25.797   0.508   6.548  1.4106  0.9585 -1.5219
 1466UNK    C0313189  25.795   0.681   6.670  0.1139  0.0017  0.6885
 1466UNK    C0413190  25.935   0.682   6.708  0.0346  0.5875 -0.0703
 1466UNK    F0513191  25.949   0.703   6.841  0.0026  0.2759 -0.3592
 1466UNK    F0613192  25.984   0.561   6.685  0.1416 -0.1512 -0.5839
 1466UNK    F0713193  26.018   0.758   6.628 -0.3694 -0.1186  0.5111
 1466UNK    H0813194  25.731   0.704   6.754  0.3254  1.5958  0.4317
 1467UNK    F0013195  27.901   0.253   4.371 -0.3140 -0.2173 -0.0858
 1467UNK    C0113196  27.852   0.304   4.262  0.1762 -0.1327  0.1204
 1467UNK    H0213197  27.902   0.398   4.238 -2.8769  1.5008 -0.1615
 1467UNK    C0313198  27.726   0.281   4.234 -0.0017  0.0244  0.0351
 1467UNK    C0413199  27.676   0.293   4.101 -0.1623 -0.4136 -0.1427
 1467UNK    F0513200  27.679   0.167   4.056 -0.0665 -0.2671 -0.1476
 1467UNK    F0613201  27.542   0.328   4.112 -0.0197 -0.2667  0.0019
 1467UNK    F0713202  27.740   0.386   4.028 -0.2491 -0.2241  0.0723
 1467UNK    H0813203  27.667   0.225   4.304  2.0748  0.1377  1.9281
 1468UNK    F0013204  24.207   5.187   5.535 -0.4755  0.4099  0.4221
 1468UNK    C0113205  24.115   5.257   5.471 -0.1841  0.5488  0.5211
 1468UNK    H0213206  24.021   5.256   5.526  0.2350  1.7702  1.2857
 1468UNK    C0313207  24.167   5.353   5.394 -0.1950  0.2165  0.0329
 1468UNK    C0413208  24.275   5.437   5.451 -0.1739 -0.2958  0.8297
 1468UNK    F0513209  24.247   5.477   5.575  0.0928 -0.2649  0.3614
 1468UNK    F0613210  24.397   5.375   5.452  0.2731 -0.2100 -0.4339
 1468UNK    F0713211  24.289   5.550   5.374 -0.4845  0.0614  0.0820
 1468UNK    H0813212  24.182   5.357   5.287 -1.3006  2.9111 -0.0737
 1469UNK    F0013213  26.148   0.512   7.736 -0.4636  0.0855  0.1510
 1469UNK    C0113214  26.241   0.601   7.704  0.1494 -0.5077 -0.0502
 1469UNK    H0213215  26.264   0.591   7.598 -1.9681  0.9086 -0.6759
 1469UNK    C0313216  26.278   0.696   7.790 -0.4209  0.2111 -0.2275
 1469UNK    C0413217  26.363   0.688   7.909 -0.0963 -0.1393 -0.0682
 1469UNK    F0513218  26.372   0.807   7.976  0.3879  0.2195  0.0071
 1469UNK    F0613219  26.303   0.603   7.997 -0.2280  0.4121  0.2166
 1469UNK    F0713220  26.489   0.641   7.885 -0.4432  0.2483 -0.4642
 1469UNK    H0813221  26.254   0.799   7.767 -1.9933 -0.0616  0.1186
 1470UNK    F0013222  27.635   1.400   4.850  0.0479  0.0455  0.4300
 1470UNK    C0113223  27.599   1.518   4.897  0.4428 -1.0533  0.6209
 1470UNK    H0213224  27.577   1.587   4.816  2.7373  1.7943  2.3288
 1470UNK    C0313225  27.598   1.539   5.028  0.2838  0.0771 -0.1914
 1470UNK    C0413226  27.698   1.607   5.112  0.7469 -0.5307  0.2551
 1470UNK    F0513227  27.822   1.595   5.055 -0.1222  0.0139  0.2233
 1470UNK    F0613228  27.682   1.738   5.135 -0.0821  0.2285  0.2078
 1470UNK    F0713229  27.705   1.543   5.233  0.4199  0.3797 -0.0802
 1470UNK    H0813230  27.515   1.498   5.083  0.5731  0.5060  0.5718
 1471UNK    F0013231  28.452   4.853   6.517  0.6822 -0.2857 -0.7645
 1471UNK    C0113232  28.571   4.855   6.577 -0.4537  0.4022  0.2828
 1471UNK    H0213233  28.637   4.942   6.566  1.7089 -1.2254  0.0980
 1471UNK    C0313234  28.607   4.746   6.638 -0.1225  0.0925  0.1651
 1471UNK    C0413235  28.711   4.737   6.744 -0.1320  0.5129  0.9654
 1471UNK    F0513236  28.754   4.609   6.734  0.2475  0.0183  0.2322
 1471UNK    F0613237  28.819   4.826   6.737 -0.1535 -0.1805 -0.7338
 1471UNK    F0713238  28.656   4.761   6.858 -0.3300  0.7164  0.0132
 1471UNK    H0813239  28.586   4.650   6.592 -1.8995 -1.0331  3.1520
 1472UNK    F0013240  24.390   4.144   7.880 -0.0782 -0.0862 -0.1104
 1472UNK    C0113241  24.268   4.198   7.872  0.6650 -0.0503  0.3172
 1472UNK    H0213242  24.191   4.125   7.897  0.6176 -0.6050 -1.3829
 1472UNK    C0313243  24.274   4.306   7.792 -0.1939  0.7440  0.0865
 1472UNK    C0413244  24.180   4.418   7.795  0.7481  0.1045 -0.1590
 1472UNK    F0513245  24.214   4.499   7.895 -0.4217 -0.4468  0.4249
 1472UNK    F0613246  24.186   4.475   7.672  0.8213  0.0198 -0.3112
 1472UNK    F0713247  24.050   4.385   7.823  0.4194  0.2635 -0.6068
 1472UNK    H0813248  24.366   4.339   7.746  0.1957 -0.0297  0.3080
 1473UNK    F0013249  26.928   0.792   5.162 -0.0977  0.3767 -0.0978
 1473UNK    C0113250  26.991   0.709   5.078 -0.1264  0.1457  0.2590
 1473UNK    H0213251  27.079   0.753   5.031 -1.6768  1.3100 -1.6061
 1473UNK    C0313252  26.970   0.579   5.099  0.4511  0.0346  0.8257
 1473UNK    C0413253  26.957   0.526   5.236 -0.1827 -0.2884 -0.3077
 1473UNK    F0513254  26.835   0.546   5.299  0.1149 -0.4716 -0.1225
 1473UNK    F0613255  26.971   0.390   5.228 -0.3158 -0.7905  0.5629
 1473UNK    F0713256  27.048   0.583   5.323 -0.1258  0.0494  0.1384
 1473UNK    H0813257  26.999   0.504   5.028 -0.7214 -0.6932  1.0957
 1474UNK    F0013258  23.789   0.754   7.928  0.6215 -0.2741 -0.9097
 1474UNK    C0113259  23.694   0.710   8.014 -0.4223  0.1158  0.4120
 1474UNK    H0213260  23.675   0.603   8.003 -0.4630  0.0777  0.8606
 1474UNK    C0313261  23.633   0.801   8.082  0.0359  0.3737  1.0096
 1474UNK    C0413262  23.536   0.800   8.193 -0.0752 -0.4872 -0.2859
 1474UNK    F0513263  23.437   0.713   8.194  0.1688 -0.2005 -0.7104
 1474UNK    F0613264  23.604   0.780   8.309 -0.0024  0.6969 -0.4485
 1474UNK    F0713265  23.483   0.924   8.200 -0.1369 -0.1785  0.4355
 1474UNK    H0813266  23.641   0.902   8.047 -1.2949 -0.2276 -1.1400
 1475UNK    F0013267  24.305   0.450   8.656 -0.3587  0.1927 -0.0984
 1475UNK    C0113268  24.358   0.553   8.593 -0.8477 -0.1194 -0.8166
 1475UNK    H0213269  24.305   0.564   8.498 -1.1481 -2.6359 -0.9661
 1475UNK    C0313270  24.385   0.662   8.663  0.8719  0.5321 -0.1633
 1475UNK    C0413271  24.522   0.706   8.710 -0.7769 -0.3797  0.1863
 1475UNK    F0513272  24.592   0.602   8.757 -0.4363  0.1221 -0.3040
 1475UNK    F0613273  24.593   0.773   8.612 -0.2908  0.4264 -0.7296
 1475UNK    F0713274  24.517   0.800   8.805 -0.0501  0.0313 -0.2152
 1475UNK    H0813275  24.309   0.695   8.732  1.8548  1.9675  0.2493
 1476UNK    F0013276  27.887   0.836   6.829  0.2190  0.3067 -0.0509
 1476UNK    C0113277  27.891   0.698   6.811  0.5708  0.2621 -0.3945
 1476UNK    H0213278  27.873   0.651   6.908 -3.6639  0.2801 -1.0677
 1476UNK    C0313279  27.925   0.640   6.699  0.1017 -0.8032 -0.5100
 1476UNK    C0413280  28.059   0.655   6.639 -0.3808 -0.2559 -0.0581
 1476UNK    F0513281  28.100   0.781   6.680  0.1332  0.2801 -0.3732
 1476UNK    F0613282  28.140   0.555   6.677 -0.1865  0.0175  0.2542
 1476UNK    F0713283  28.064   0.648   6.505 -0.2283 -0.2288  0.0557
 1476UNK    H0813284  27.851   0.631   6.621 -3.9256  3.6969  2.5916
 1477UNK    F0013285  27.292   3.881   8.953  0.4343 -0.2519  0.5282
 1477UNK    C0113286  27.355   3.883   8.834  0.0340  0.2383 -0.3608
 1477UNK    H0213287  27.462   3.882   8.851 -0.1560  0.2900  0.9016
 1477UNK    C0313288  27.292   3.846   8.725  0.9482  0.4531 -0.1920
 1477UNK    C0413289  27.218   3.943   8.642  0.2088  0.6597 -0.4746
 1477UNK    F0513290  27.264   4.068   8.626 -0.1395  0.3062 -0.2275
 1477UNK    F0613291  27.208   3.885   8.520  0.3585  0.5010 -0.1682
 1477UNK    F0713292  27.091   3.960   8.689 -0.5510  0.0729 -0.0464
 1477UNK    H0813293  27.254   3.745   8.710  0.1983  0.6273  0.5010
 1478UNK    F0013294  24.013   4.223   9.901  0.2433  0.3161 -0.2062
 1478UNK    C0113295  23.984   4.155   9.790  0.2391 -0.3040  0.0041
 1478UNK    H0213296  23.938   4.223   9.718 -1.8394 -0.0989  1.4768
 1478UNK    C0313297  23.967   4.027   9.801 -0.6792  0.0885 -0.4961
 1478UNK    C0413298  23.982   3.954   9.676  0.5327  0.5762  0.5242
 1478UNK    F0513299  23.950   3.828   9.706 -0.2649 -0.0002 -0.3423
 1478UNK    F0613300  23.908   4.003   9.576 -0.2605  0.3550 -0.3940
 1478UNK    F0713301  24.111   3.951   9.643  0.0922 -0.0610 -0.3170
 1478UNK    H0813302  24.024   3.978   9.879  1.3620  2.7962 -0.1944
 1479UNK    F0013303  25.151   4.636   6.359 -0.2682 -0.0950 -0.2529
 1479UNK    C0113304  25.221   4.527   6.378 -0.7129  0.0259 -0.5608
 1479UNK    H0213305  25.294   4.544   6.457 -0.8839  0.3324 -0.4708
 1479UNK    C0313306  25.186   4.413   6.321  0.2265 -0.2774  0.0007
 1479UNK    C0413307  25.168   4.392   6.177 -0.2331 -0.1862  0.1915
 1479UNK    F0513308  25.097   4.496   6.128  0.1628 -0.1732 -0.7716
 1479UNK    F0613309  25.296   4.401   6.117 -0.0423 -0.1601 -0.2314
 1479UNK    F0713310  25.117   4.272   6.143 -0.0290 -0.2405 -0.1786
 1479UNK    H0813311  25.146   4.334   6.382  1.2337 -1.2608 -0.5936
 1480UNK    F0013312  29.521   0.529   7.047  0.1116 -0.4401  0.3042
 1480UNK    C0113313  29.479   0.629   7.122  0.1204  0.0579 -0.3376
 1480UNK    H0213314  29.376   0.654   7.096  0.1739  0.9782  0.3178
 1480UNK    C0313315  29.534   0.636   7.241  0.3948 -0.1148  0.5317
 1480UNK    C0413316  29.466   0.700   7.356 -0.0227 -0.2157 -0.3704
 1480UNK    F0513317  29.415   0.612   7.443 -0.6429  0.2071  0.1705
 1480UNK    F0613318  29.556   0.762   7.439  0.2122 -0.9423 -0.2005
 1480UNK    F0713319  29.383   0.798   7.313  0.0427  0.5154  0.3619
 1480UNK    H0813320  29.623   0.579   7.261  1.7369  1.0693 -1.8570
 1481UNK    F0013321  28.256   3.881   5.388 -0.3811 -0.0759  0.3486
 1481UNK    C0113322  28.376   3.842   5.431  0.3419 -0.2818  0.2721
 1481UNK    H0213323  28.439   3.789   5.360 -0.6429 -1.6541  0.3993
 1481UNK    C0313324  28.423   3.919   5.535  0.1860 -0.3069 -0.2466
 1481UNK    C0413325  28.566   3.934   5.564 -0.0917 -0.0108 -0.5203
 1481UNK    F0513326  28.612   3.814   5.607  0.1098  0.0220  0.0133
 1481UNK    F0613327  28.644   3.972   5.462  0.6214  0.4938 -0.0103
 1481UNK    F0713328  28.574   4.030   5.660  0.1898 -0.1347 -0.0550
 1481UNK    H0813329  28.366   3.996   5.584  0.2795 -1.5249  1.8011
 1482UNK    F0013330  26.922   5.200   5.348 -0.0013  0.4601 -0.0488
 1482UNK    C0113331  26.968   5.325   5.378 -0.4645 -0.4880  0.0722
 1482UNK    H0213332  26.903   5.405   5.343  0.8888  0.8427  0.5973
 1482UNK    C0313333  27.097   5.332   5.423  0.6224  0.9882 -0.0736
 1482UNK    C0413334  27.204   5.329   5.320 -0.2773 -0.3767  0.5547
 1482UNK    F0513335  27.183   5.288   5.192 -0.1270  0.3034 -0.1346
 1482UNK    F0613336  27.248   5.458   5.307 -0.0607 -0.0343 -0.5598
 1482UNK    F0713337  27.317   5.263   5.364 -0.7652  0.8183  0.7683
 1482UNK    H0813338  27.118   5.273   5.511  0.5653  1.2702  0.1267
 1483UNK    F0013339  24.076   3.866   8.434 -0.3963 -0.0656  0.3591
 1483UNK    C0113340  24.148   3.977   8.407 -0.0473 -0.3873 -0.3924
 1483UNK    H0213341  24.205   4.016   8.491 -0.2775 -0.1808 -0.3353
 1483UNK    C0313342  24.140   4.030   8.287  0.5180  0.6192  0.0770
 1483UNK    C0413343  24.040   4.130   8.237  0.4385  0.1517 -0.5619
 1483UNK    F0513344  24.046   4.152   8.100  0.0386  0.4714  0.2430
 1483UNK    F0613345  23.916   4.092   8.274  0.5204  0.2676  0.0103
 1483UNK    F0713346  24.076   4.246   8.301  0.1501  0.2957  0.1507
 1483UNK    H0813347  24.211   3.998   8.212  0.0948  1.8677 -0.8817
 1484UNK    F0013348  25.231   0.681  10.369  0.5732  0.1686 -0.1723
 1484UNK    C0113349  25.184   0.671  10.494  0.3702  0.3654  0.8596
 1484UNK    H0213350  25.198   0.570  10.531  1.8131 -0.1240 -0.9447
 1484UNK    C0313351  25.143   0.785  10.554 -0.8552  0.2852 -0.5927
 1484UNK    C0413352  25.207   0.915  10.528 -0.9656  0.4795  0.7364
 1484UNK    F0513353  25.342   0.909  10.548  0.5037 -0.1256  0.6794
 1484UNK    F0613354  25.173   0.961  10.399  0.3116  0.1690 -0.0598
 1484UNK    F0713355  25.149   0.999  10.612  0.2824  0.1007 -0.1471
 1484UNK    H0813356  25.065   0.787  10.629  1.4387  2.5779  1.8870
 1485UNK    F0013357  26.119   4.033   8.211  0.1864 -1.0666 -0.2237
 1485UNK    C0113358  26.105   3.903   8.214  0.5292  0.8303  0.3328
 1485UNK    H0213359  26.000   3.877   8.226  1.0603 -1.1733  0.8399
 1485UNK    C0313360  26.200   3.822   8.160  0.1417  0.2474 -0.1994
 1485UNK    C0413361  26.181   3.687   8.102  0.2239  0.4693 -0.0729
 1485UNK    F0513362  26.178   3.707   7.965 -0.0329 -0.1260 -0.0707
 1485UNK    F0613363  26.297   3.622   8.137  0.2979  0.3298  0.5526
 1485UNK    F0713364  26.074   3.610   8.142 -0.1446 -0.3034  0.5063
 1485UNK    H0813365  26.284   3.878   8.120  0.1771 -0.1322 -0.6618
 1486UNK    F0013366  23.469   0.147  12.177 -0.3073 -0.0241 -0.6235
 1486UNK    C0113367  23.464   0.122  12.307 -0.8040 -0.0392 -0.1282
 1486UNK    H0213368  23.393   0.042  12.329 -0.3733 -0.2242  0.5751
 1486UNK    C0313369  23.557   0.173  12.384 -0.4766  0.0796  0.0266
 1486UNK    C0413370  23.533   0.297  12.448 -0.4924 -0.3065  0.4462
 1486UNK    F0513371  23.435   0.300  12.537  0.1613  0.4047 -0.0772
 1486UNK    F0613372  23.648   0.340  12.514 -0.2528 -0.4879 -0.0265
 1486UNK    F0713373  23.510   0.399  12.359  0.1065  0.5706 -0.1316
 1486UNK    H0813374  23.660   0.160  12.354 -0.6445  0.0378 -0.5343
 1487UNK    F0013375  25.185   1.631   9.728 -0.0238 -0.2285  0.1643
 1487UNK    C0113376  25.126   1.619   9.844  0.0556  0.0097 -0.6419
 1487UNK    H0213377  25.039   1.683   9.856 -1.8149 -2.0969 -2.4649
 1487UNK    C0313378  25.145   1.500   9.902 -0.5487 -0.6030 -0.3025
 1487UNK    C0413379  25.124   1.369   9.842 -0.3201  0.4572  0.4196
 1487UNK    F0513380  25.005   1.334   9.799  0.6127  0.1763 -0.3433
 1487UNK    F0613381  25.216   1.341   9.743  0.2446  0.3099 -0.0070
 1487UNK    F0713382  25.125   1.287   9.952 -0.6682  0.2038 -0.0634
 1487UNK    H0813383  25.117   1.500  10.006  2.0126  1.9429  0.4397
 1488UNK    F0013384  26.872   3.196   4.082 -0.2817  0.6099 -0.1444
 1488UNK    C0113385  26.738   3.200   4.103 -0.2302  0.6168  0.0386
 1488UNK    H0213386  26.716   3.284   4.169  1.6933  0.9001  0.3524
 1488UNK    C0313387  26.677   3.083   4.095  0.3621 -1.0734  0.5562
 1488UNK    C0413388  26.685   2.988   4.205 -0.3129 -0.7263  0.4953
 1488UNK    F0513389  26.576   2.910   4.192 -0.0536  0.0425  0.4673
 1488UNK    F0613390  26.791   2.914   4.191  0.1566 -0.1569 -0.1547
 1488UNK    F0713391  26.677   3.040   4.334  0.1623  0.3013 -0.3093
 1488UNK    H0813392  26.654   3.042   3.998 -0.2329 -1.7687  0.9917
 1489UNK    F0013393  28.786   3.604   6.829  0.4832 -0.4957  0.0879
 1489UNK    C0113394  28.828   3.640   6.711  0.2032  0.1948 -1.0678
 1489UNK    H0213395  28.871   3.552   6.664 -1.4293 -2.3857  2.1003
 1489UNK    C0313396  28.780   3.746   6.648  0.1774 -0.2783 -0.0045
 1489UNK    C0413397  28.638   3.776   6.645  0.3446  0.2055  0.3215
 1489UNK    F0513398  28.595   3.821   6.766  0.2977  0.1089 -0.1381
 1489UNK    F0613399  28.617   3.880   6.563  0.4443 -0.5019  0.5896
 1489UNK    F0713400  28.566   3.674   6.594  0.0965  0.4844  0.5529
 1489UNK    H0813401  28.836   3.838   6.655 -2.6325  1.5686 -1.3378
 1490UNK    F0013402  28.835   3.576   4.849  0.7235 -0.2855  0.6196
 1490UNK    C0113403  28.940   3.584   4.932  0.2108 -0.3096 -0.0703
 1490UNK    H0213404  29.013   3.511   4.896  0.3614  0.2799 -0.9511
 1490UNK    C0313405  28.961   3.690   5.009  0.3937 -0.5428 -0.1433
 1490UNK    C0413406  29.092   3.722   5.069  0.1373 -0.2416 -0.2477
 1490UNK    F0513407  29.139   3.618   5.145 -0.0419  0.5362  0.0229
 1490UNK    F0613408  29.182   3.774   4.983 -0.2726  0.0707 -0.3389
 1490UNK    F0713409  29.080   3.828   5.166 -0.1695  0.4467  0.0032
 1490UNK    H0813410  28.905   3.782   5.002  0.8680 -0.1503  1.2429
 1491UNK    F0013411  28.254   2.457   4.495 -0.2847 -0.1289  0.4244
 1491UNK    C0113412  28.156   2.379   4.534  0.1344  0.0162  0.2052
 1491UNK    H0213413  28.101   2.411   4.623 -0.9979 -1.7665  0.1732
 1491UNK    C0313414  28.125   2.285   4.448  0.2892 -0.9532 -0.4932
 1491UNK    C0413415  28.208   2.166   4.434 -0.6703 -0.5243  0.4215
 1491UNK    F0513416  28.336   2.203   4.402 -0.0715 -0.1850 -0.0447
 1491UNK    F0613417  28.216   2.094   4.549  0.5958 -0.0040 -0.0316
 1491UNK    F0713418  28.149   2.088   4.343 -0.8182 -0.1482 -0.0404
 1491UNK    H0813419  28.092   2.321   4.352  1.2432 -1.4553 -1.0216
 1492UNK    F0013420  34.667   5.185   7.816  0.2027 -0.4139  0.4839
 1492UNK    C0113421  34.728   5.306   7.833 -1.0623  0.1908 -0.1253
 1492UNK    H0213422  34.655   5.386   7.844  0.4571  1.8899 -2.2136
 1492UNK    C0313423  34.853   5.306   7.873  0.5491 -0.5924  0.1779
 1492UNK    C0413424  34.899   5.391   7.988  0.4677 -0.7033  0.1112
 1492UNK    F0513425  35.037   5.412   7.991  0.4364  0.4786 -0.4795
 1492UNK    F0613426  34.855   5.518   7.967  0.0351 -0.1272 -0.1711
 1492UNK    F0713427  34.853   5.354   8.106 -0.2872  0.1861  0.3986
 1492UNK    H0813428  34.925   5.244   7.822 -0.0074  0.2054 -1.6231
 1493UNK    F0013429  27.819   0.275  10.858 -0.3505 -0.2325  0.5455
 1493UNK    C0113430  27.775   0.155  10.812 -0.4928  0.9382 -0.6914
 1493UNK    H0213431  27.813   0.078  10.880 -0.4455  0.9327 -0.7263
 1493UNK    C0313432  27.726   0.133  10.691  0.2353 -0.2007  0.0580
 1493UNK    C0413433  27.660   0.007  10.668  0.1683  0.5117  0.2876
 1493UNK    F0513434  27.750  -0.093  10.673  0.0995 -0.0534 -0.1458
 1493UNK    F0613435  27.570  -0.031  10.769 -0.5823 -0.1619  0.3049
 1493UNK    F0713436  27.586  -0.001  10.548 -0.3247  0.0249 -0.5368
 1493UNK    H0813437  27.772   0.186  10.609  0.6459 -1.0832 -0.2875
 1494UNK    F0013438  29.758   4.513   5.493 -0.2849 -0.2647  0.5630
 1494UNK    C0113439  29.738   4.624   5.420  0.7413 -0.5667  0.1214
 1494UNK    H0213440  29.804   4.704   5.454 -0.6757  0.8348 -0.3586
 1494UNK    C0313441  29.612   4.652   5.382 -0.0384  0.1692 -0.1281
 1494UNK    C0413442  29.510   4.682   5.484  0.5432 -0.4102  0.0210
 1494UNK    F0513443  29.540   4.626   5.604 -0.2575 -0.5532  0.3937
 1494UNK    F0613444  29.484   4.814   5.505  0.0570 -0.4169 -0.1954
 1494UNK    F0713445  29.386   4.637   5.444  0.6638 -0.4721 -0.0926
 1494UNK    H0813446  29.591   4.704   5.290 -0.1335 -0.9974 -0.7785
 1495UNK    F0013447  30.254   3.140   8.440  0.0832 -0.2664 -0.1058
 1495UNK    C0113448  30.204   3.259   8.391 -0.6217  0.5136  0.6482
 1495UNK    H0213449  30.095   3.263   8.394 -0.6478  0.6702 -0.2114
 1495UNK    C0313450  30.286   3.360   8.381  0.9862 -0.5361 -0.4324
 1495UNK    C0413451  30.249   3.493   8.336 -0.4381 -0.4267 -0.1013
 1495UNK    F0513452  30.176   3.559   8.426 -0.1518  0.2709  0.1108
 1495UNK    F0613453  30.362   3.565   8.310  0.7626  0.2106 -0.0636
 1495UNK    F0713454  30.194   3.489   8.215 -0.4017 -0.5462  0.6254
 1495UNK    H0813455  30.385   3.357   8.424  0.2223  1.5749  1.5645
 1496UNK    F0013456  28.482   4.746   8.990 -0.0669  0.0422  0.1859
 1496UNK    C0113457  28.474   4.662   8.886 -0.5350  0.2426 -0.0485
 1496UNK    H0213458  28.515   4.703   8.794  0.1882 -1.7528 -0.6552
 1496UNK    C0313459  28.456   4.537   8.918 -0.1571 -0.1020  0.4077
 1496UNK    C0413460  28.548   4.470   9.007 -0.4415  0.0686 -0.3912
 1496UNK    F0513461  28.669   4.530   8.995 -0.2945  0.0112  0.2928
 1496UNK    F0613462  28.508   4.469   9.138 -0.2157  0.0363 -0.4139
 1496UNK    F0713463  28.563   4.340   8.963  0.4180  0.2469 -0.0547
 1496UNK    H0813464  28.407   4.469   8.850  2.3370  0.3982 -1.9692
 1497UNK    F0013465  27.958   3.960   4.823 -0.2790  0.6327 -0.3182
 1497UNK    C0113466  27.975   3.881   4.714  0.2199  0.0152  0.1391
 1497UNK    H0213467  28.009   3.937   4.626  0.5665 -0.0193  0.2492
 1497UNK    C0313468  27.946   3.753   4.708 -0.0768  0.7129  0.0216
 1497UNK    C0413469  27.808   3.708   4.682  0.1249  0.8258 -0.2532
 1497UNK    F0513470  27.807   3.591   4.749 -0.0095 -0.1065 -0.2749
 1497UNK    F0613471  27.719   3.786   4.739  0.2030  0.0195  0.0965
 1497UNK    F0713472  27.781   3.691   4.553 -0.0791 -0.0624 -0.2258
 1497UNK    H0813473  28.015   3.674   4.730 -1.6668 -0.2134  1.7815
 1498UNK    F0013474  30.448   1.333   8.536 -0.0786  0.2380 -0.4488
 1498UNK    C0113475  30.477   1.332   8.406  0.2118 -0.0052 -0.8945
 1498UNK    H0213476  30.493   1.434   8.370  0.1960 -0.0125 -0.9225
 1498UNK    C0313477  30.507   1.223   8.344 -0.1734  0.0917 -0.5541
 1498UNK    C0413478  30.611   1.140   8.412  0.4774 -0.5798 -0.0952
 1498UNK    F0513479  30.642   1.043   8.324 -0.2493 -0.2248  0.7729
 1498UNK    F0613480  30.723   1.201   8.457  0.4971 -0.6850  0.1551
 1498UNK    F0713481  30.568   1.071   8.519  0.0581 -0.1323 -0.2448
 1498UNK    H0813482  30.431   1.165   8.293 -0.6695  0.0737  0.1912
 1499UNK    F0013483  29.491   0.605   6.085  0.1501  0.0571 -0.0161
 1499UNK    C0113484  29.382   0.624   6.005  0.2104  1.1123 -0.0547
 1499UNK    H0213485  29.312   0.541   5.991  1.1446 -0.1223  2.3067
 1499UNK    C0313486  29.383   0.729   5.920 -0.3622 -0.2547  0.3429
 1499UNK    C0413487  29.268   0.780   5.849  0.1469  0.1373  0.3844
 1499UNK    F0513488  29.198   0.678   5.795  0.7758  0.1335 -0.1295
 1499UNK    F0613489  29.195   0.863   5.929  0.0927 -0.2626  0.1595
 1499UNK    F0713490  29.317   0.861   5.756  0.3791 -0.6411  0.0263
 1499UNK    H0813491  29.462   0.803   5.915 -0.6279  0.0655  0.8269
 1500UNK    F0013492  29.068   1.497   4.728  0.0839  0.2927  0.4582
 1500UNK    C0113493  29.110   1.539   4.846 -0.1701  0.8439  0.1127
 1500UNK    H0213494  29.218   1.537   4.861 -0.3686  1.4724  1.7068
 1500UNK    C0313495  29.017   1.539   4.942 -0.5223 -0.1600 -0.0829
 1500UNK    C0413496  29.034   1.625   5.063 -0.7846 -0.3796 -0.7824
 1500UNK    F0513497  29.159   1.622   5.124  0.2053 -0.1151 -0.5023
 1500UNK    F0613498  29.044   1.756   5.023  0.1489  0.1330 -0.2492
 1500UNK    F0713499  28.939   1.616   5.155  0.1109 -0.1914  0.3242
 1500UNK    H0813500  28.913   1.530   4.913 -0.9101  2.0311  0.5209
 1501UNK    F0013501  29.130   4.314   9.403  0.6335  0.2895 -0.2669
 1501UNK    C0113502  29.021   4.387   9.390  0.7144  0.5032 -0.0610
 1501UNK    H0213503  29.033   4.490   9.355  1.4401  0.6149  0.5081
 1501UNK    C0313504  28.904   4.320   9.407 -0.4124  0.2556  0.3353
 1501UNK    C0413505  28.784   4.369   9.344 -0.7183 -0.4676 -0.2780
 1501UNK    F0513506  28.684   4.296   9.398  0.0190  0.3368  0.0426
 1501UNK    F0613507  28.771   4.504   9.374  0.0617  0.3363  0.3067
 1501UNK    F0713508  28.788   4.357   9.207  0.0467  0.3873 -0.1545
 1501UNK    H0813509  28.892   4.240   9.479 -0.4330  0.6397  0.7557
 1502UNK    F0013510  28.387   2.565   4.731  0.7101  0.3606 -0.1035
 1502UNK    C0113511  28.414   2.698   4.729 -0.3880  0.3907 -0.8073
 1502UNK    H0213512  28.320   2.752   4.716  0.6430  2.2985 -0.5033
 1502UNK    C0313513  28.530   2.741   4.773 -0.7151 -0.6556 -0.3779
 1502UNK    C0413514  28.651   2.755   4.694  0.0408  0.2327  0.1203
 1502UNK    F0513515  28.658   2.876   4.626  0.1488  0.1462  0.0087
 1502UNK    F0613516  28.755   2.765   4.781  0.0369  0.4711 -0.2162
 1502UNK    F0713517  28.677   2.658   4.603 -0.0246 -0.0087 -0.0803
 1502UNK    H0813518  28.536   2.789   4.870 -2.3130  2.4103 -1.7451
 1503UNK    F0013519  29.193   2.097   6.535 -0.1969 -0.1923  0.2956
 1503UNK    C0113520  29.173   2.212   6.460  0.3588  0.3488 -0.6630
 1503UNK    H0213521  29.172   2.298   6.528 -2.2405 -1.0712  1.1893
 1503UNK    C0313522  29.199   2.207   6.331  0.6208  0.7043 -0.2196
 1503UNK    C0413523  29.308   2.131   6.264  0.0443  0.1683 -0.0068
 1503UNK    F0513524  29.293   2.002   6.271  0.0567  0.3022  0.1485
 1503UNK    F0613525  29.311   2.162   6.133 -0.1024 -0.4176 -0.1234
 1503UNK    F0713526  29.432   2.161   6.316  0.0975  0.0369  0.2120
 1503UNK    H0813527  29.105   2.208   6.278 -0.5107 -1.3253  1.6752
 1504UNK    F0013528  29.490   0.009   9.898 -0.1817 -0.1239  0.2483
 1504UNK    C0113529  29.529  -0.104   9.843 -0.7800 -0.1960 -0.0297
 1504UNK    H0213530  29.635  -0.122   9.859 -0.9247 -1.1577 -0.1516
 1504UNK    C0313531  29.454  -0.168   9.753  0.4198 -0.2034 -0.4070
 1504UNK    C0413532  29.488  -0.303   9.710 -0.0671  0.7970 -0.5078
 1504UNK    F0513533  29.620  -0.312   9.693 -0.4401  0.2855 -0.2567
 1504UNK    F0613534  29.441  -0.404   9.778 -0.1879 -0.2701  0.0189
 1504UNK    F0713535  29.447  -0.330   9.581 -0.1754 -0.5133  0.0163
 1504UNK    H0813536  29.348  -0.155   9.762  0.9165  2.7898  2.0271
 1505UNK    F0013537  28.657   4.978   5.947 -0.1314 -0.2060  0.3780
 1505UNK    C0113538  28.786   4.991   5.990 -0.4621 -0.2528  0.8361
 1505UNK    H0213539  28.858   4.984   5.908 -1.0885 -2.0078  0.4249
 1505UNK    C0313540  28.809   5.004   6.123 -0.7748  0.1539  0.3714
 1505UNK    C0413541  28.818   4.887   6.211  0.7728 -0.5690  0.1675
 1505UNK    F0513542  28.825   4.930   6.334  0.2691  0.4030 -0.1111
 1505UNK    F0613543  28.717   4.793   6.195 -0.0594 -0.2856  0.1520
 1505UNK    F0713544  28.935   4.822   6.181 -0.0283  0.1684  0.8481
 1505UNK    H0813545  28.769   5.089   6.176  1.5539  0.6133  1.4227
 1506UNK    F0013546  27.840   4.126   6.398  0.5018 -0.0209  0.0376
 1506UNK    C0113547  27.941   4.138   6.487 -0.2868  0.6860  0.1773
 1506UNK    H0213548  27.904   4.202   6.567 -1.1850  2.2999 -1.4772
 1506UNK    C0313549  28.066   4.133   6.438 -0.1144 -0.6380 -0.7923
 1506UNK    C0413550  28.103   4.056   6.324 -0.0091  0.1813 -0.1774
 1506UNK    F0513551  28.041   4.095   6.215 -0.1994  0.1597 -0.7673
 1506UNK    F0613552  28.231   4.068   6.300 -0.2450 -0.3973 -0.0734
 1506UNK    F0713553  28.088   3.918   6.346  0.3790 -0.1745  0.5076
 1506UNK    H0813554  28.124   4.222   6.458 -0.7601 -0.0832 -1.3488
 1507UNK    F0013555  27.996   2.884   6.750 -0.3002  0.4761  0.3282
 1507UNK    C0113556  28.111   2.948   6.769 -0.5193 -0.4200  0.1162
 1507UNK    H0213557  28.152   2.932   6.869  3.1104  2.1174 -0.8602
 1507UNK    C0313558  28.197   2.960   6.665  0.1600  0.4521 -0.1545
 1507UNK    C0413559  28.243   2.850   6.578 -0.3072  0.0394 -0.6291
 1507UNK    F0513560  28.230   2.727   6.634  0.1241 -0.2614 -0.6470
 1507UNK    F0613561  28.194   2.850   6.448  0.6283 -0.1629  0.1022
 1507UNK    F0713562  28.376   2.871   6.570 -1.2416 -0.0264  0.3502
 1507UNK    H0813563  28.231   3.057   6.633  0.0506  0.0669 -1.4913
 1508UNK    F0013564  27.658   2.860   5.836 -0.3216 -0.1261  0.6338
 1508UNK    C0113565  27.704   2.757   5.761  0.2585 -0.9038  0.6030
 1508UNK    H0213566  27.641   2.734   5.675  2.5716 -1.2471 -1.0767
 1508UNK    C0313567  27.828   2.712   5.786  0.1267 -0.3169 -0.5277
 1508UNK    C0413568  27.919   2.641   5.693 -0.5485 -0.0396  0.8127
 1508UNK    F0513569  28.032   2.609   5.757  0.4434 -0.1907 -0.0541
 1508UNK    F0613570  27.874   2.524   5.647  0.2506  0.3268  0.4510
 1508UNK    F0713571  27.942   2.724   5.587 -0.0728 -0.0723  0.4087
 1508UNK    H0813572  27.843   2.672   5.885 -1.3219  0.3980 -0.0112
 1509UNK    F0013573  27.440   3.511   3.332  0.1852 -0.2674 -0.2425
 1509UNK    C0113574  27.527   3.555   3.421 -0.0618 -0.7065  0.0619
 1509UNK    H0213575  27.479   3.630   3.483  1.0195 -0.0181  0.0889
 1509UNK    C0313576  27.657   3.549   3.392 -0.3923  0.0795  0.4036
 1509UNK    C0413577  27.769   3.584   3.479  0.0900 -0.3595  0.4365
 1509UNK    F0513578  27.882   3.636   3.420 -0.0357  0.4548  0.0687
 1509UNK    F0613579  27.722   3.683   3.554 -0.2224  0.0950 -0.0960
 1509UNK    F0713580  27.799   3.483   3.561  0.1440  0.2273 -0.2893
 1509UNK    H0813581  27.687   3.535   3.289  2.6597  1.2483  1.0874
 1510UNK    F0013582  28.277   1.099   7.490 -0.4058  0.1974 -0.1990
 1510UNK    C0113583  28.254   0.975   7.446  0.4215 -0.3965 -0.0864
 1510UNK    H0213584  28.323   0.932   7.374 -0.4825  0.6085 -1.5736
 1510UNK    C0313585  28.153   0.916   7.501  0.2132  0.8766 -0.5278
 1510UNK    C0413586  28.110   0.780   7.469  0.4536 -0.3859  0.0867
 1510UNK    F0513587  28.192   0.684   7.511  0.0678  0.3863  0.2879
 1510UNK    F0613588  27.991   0.750   7.521  0.3892 -0.1490  0.0739
 1510UNK    F0713589  28.082   0.766   7.337 -0.3586  0.3077 -0.4957
 1510UNK    H0813590  28.061   0.965   7.530  1.0262  1.4883  1.1166
 1511UNK    F0013591  29.937   2.825   7.397  0.3121  0.1444 -0.1246
 1511UNK    C0113592  29.877   2.910   7.480 -0.2994  0.5011 -0.1182
 1511UNK    H0213593  29.782   2.949   7.445 -0.2329  0.8436  0.0789
 1511UNK    C0313594  29.947   2.963   7.584  0.1505 -0.2381 -0.7515
 1511UNK    C0413595  29.874   3.055   7.676  0.0617 -0.1318  0.2687
 1511UNK    F0513596  29.767   2.990   7.728  0.3500  0.0353  0.4284
 1511UNK    F0613597  29.943   3.120   7.777  0.3121  0.2154 -0.2723
 1511UNK    F0713598  29.815   3.153   7.604  0.4006 -0.2164  0.3121
 1511UNK    H0813599  30.051   2.992   7.575  0.2064 -0.1372  0.1604
 1512UNK    F0013600  27.437   5.068   9.133 -0.6275 -0.0314 -0.1034
 1512UNK    C0113601  27.432   5.084   9.261 -0.4833 -0.0195 -0.7690
 1512UNK    H0213602  27.516   5.037   9.311 -1.4954 -1.5506 -0.4586
 1512UNK    C0313603  27.309   5.111   9.316 -0.6375 -0.1530  0.5165
 1512UNK    C0413604  27.294   5.138   9.461 -0.4834  0.3187  0.3981
 1512UNK    F0513605  27.183   5.082   9.509  0.0337  0.2070  0.0718
 1512UNK    F0613606  27.390   5.084   9.547  0.3364 -0.0566  0.2568
 1512UNK    F0713607  27.292   5.268   9.498  0.0537  0.2725 -0.4896
 1512UNK    H0813608  27.220   5.068   9.274 -3.0152  3.6006  1.5253
 1513UNK    F0013609  29.433   2.835   7.996  0.2590 -0.1018 -0.0605
 1513UNK    C0113610  29.524   2.738   7.979  0.0693  0.2501 -0.3363
 1513UNK    H0213611  29.486   2.646   8.025  0.1982 -0.4909 -1.6735
 1513UNK    C0313612  29.655   2.769   7.964 -0.1970 -0.6473  0.1314
 1513UNK    C0413613  29.751   2.679   7.887  0.5170 -0.1355 -0.2410
 1513UNK    F0513614  29.754   2.551   7.929  0.2365  0.0591 -0.3829
 1513UNK    F0613615  29.709   2.685   7.757 -0.1039  0.0468 -0.2998
 1513UNK    F0713616  29.881   2.716   7.892 -0.4526  0.0069  0.1369
 1513UNK    H0813617  29.708   2.832   8.034 -0.6041  2.4422 -2.2148
 1514UNK    F0013618  29.298   3.895   6.059 -0.2194  0.0992  0.0953
 1514UNK    C0113619  29.377   3.970   6.138 -0.5829 -0.0663  0.4154
 1514UNK    H0213620  29.354   4.075   6.119  0.6099  0.1530  0.1678
 1514UNK    C0313621  29.499   3.906   6.164  0.7098 -0.0346  0.1764
 1514UNK    C0413622  29.593   3.964   6.265  0.4044  0.3217  0.6353
 1514UNK    F0513623  29.549   3.958   6.396 -0.1764 -0.1488 -0.2392
 1514UNK    F0613624  29.710   3.894   6.257  0.2223 -0.0739  0.2217
 1514UNK    F0713625  29.620   4.091   6.241 -0.5208 -0.1401  0.2029
 1514UNK    H0813626  29.524   3.813   6.115 -0.3274 -0.0400 -0.3535
 1515UNK    F0013627  29.678   3.144   7.900 -0.2482  0.2927 -0.1464
 1515UNK    C0113628  29.554   3.119   7.947  0.5177  0.0312  0.2264
 1515UNK    H0213629  29.488   3.090   7.865  1.1300  1.8441 -0.9504
 1515UNK    C0313630  29.518   3.190   8.054  0.0992 -0.1978  0.8240
 1515UNK    C0413631  29.449   3.131   8.161 -0.6753 -0.2410  0.1661
 1515UNK    F0513632  29.385   3.016   8.136 -0.1832  0.0596  0.2392
 1515UNK    F0613633  29.530   3.091   8.266 -0.0009  0.3092 -0.0656
 1515UNK    F0713634  29.364   3.222   8.207  0.0530 -0.4494 -0.1580
 1515UNK    H0813635  29.571   3.281   8.075 -1.4935  2.0333 -4.1106
 1516UNK    F0013636  28.089   3.148   6.146  0.5071 -0.2646 -0.2189
 1516UNK    C0113637  28.004   3.244   6.196 -0.3009  0.3097 -0.3276
 1516UNK    H0213638  27.949   3.301   6.122  0.2384  2.1314  0.6620
 1516UNK    C0313639  28.027   3.281   6.318 -0.4705  0.1104 -0.5564
 1516UNK    C0413640  27.988   3.195   6.436  0.2083  0.0465  0.6442
 1516UNK    F0513641  28.040   3.074   6.433 -0.0355 -0.0416  0.4837
 1516UNK    F0613642  28.029   3.262   6.551  0.2612 -0.2735  0.3755
 1516UNK    F0713643  27.856   3.183   6.439 -0.2458  0.1198 -0.4062
 1516UNK    H0813644  28.116   3.341   6.333 -0.4195 -0.0385 -0.2598
 1517UNK    F0013645  28.214   1.014   4.201  0.2840  0.4712 -0.4599
 1517UNK    C0113646  28.287   1.111   4.246  0.7593  0.4067 -0.3659
 1517UNK    H0213647  28.288   1.193   4.175 -0.0259  0.2287 -0.5769
 1517UNK    C0313648  28.356   1.091   4.357  0.3903  0.2554 -0.3861
 1517UNK    C0413649  28.417   1.201   4.425 -0.6016 -0.5081 -0.2762
 1517UNK    F0513650  28.334   1.297   4.466 -0.0695 -0.0944 -0.0827
 1517UNK    F0613651  28.474   1.152   4.535 -0.0521  0.0560 -0.2429
 1517UNK    F0713652  28.523   1.252   4.357 -0.7093 -0.4908  0.0785
 1517UNK    H0813653  28.411   0.998   4.356  0.9567  0.5744  0.7095
 1518UNK    F0013654  29.286   5.097   7.918  0.3176  0.4349  0.3125
 1518UNK    C0113655  29.411   5.133   7.909  0.0990 -0.0537  0.4117
 1518UNK    H0213656  29.463   5.138   8.005  1.2474  2.2140 -0.3038
 1518UNK    C0313657  29.470   5.130   7.788 -0.2238  0.6146  0.2481
 1518UNK    C0413658  29.614   5.122   7.764 -1.2459 -0.3604 -0.0287
 1518UNK    F0513659  29.675   5.229   7.822  0.2952 -0.0500  0.3507
 1518UNK    F0613660  29.683   5.022   7.814  0.0835  0.2367 -0.0760
 1518UNK    F0713661  29.630   5.129   7.622 -0.4173  0.1020 -0.0805
 1518UNK    H0813662  29.409   5.138   7.699 -1.5123 -0.9094  0.9494
 1519UNK    F0013663  26.584   1.134   6.498 -0.1312  0.3637 -0.2902
 1519UNK    C0113664  26.706   1.189   6.501  0.0918 -0.7632  0.1836
 1519UNK    H0213665  26.729   1.243   6.593  1.7829 -0.5673 -0.3511
 1519UNK    C0313666  26.768   1.197   6.384  0.0467  0.8452  0.7219
 1519UNK    C0413667  26.908   1.214   6.369  0.2043 -0.2225 -0.3040
 1519UNK    F0513668  26.974   1.104   6.386 -0.2364  0.1512  0.5938
 1519UNK    F0613669  26.938   1.246   6.239 -0.0103  0.2375  0.3880
 1519UNK    F0713670  26.956   1.310   6.452 -0.1193 -0.5971  0.3911
 1519UNK    H0813671  26.707   1.164   6.301  0.8283  0.4428  0.3112
 1520UNK    F0013672  28.290   3.949   7.059 -0.4903  0.4685 -0.3337
 1520UNK    C0113673  28.286   3.930   6.927 -0.3689  0.1248  0.8149
 1520UNK    H0213674  28.383   3.890   6.900 -0.3632 -0.0938  1.1541
 1520UNK    C0313675  28.191   3.971   6.848  0.3387 -1.2744 -0.6926
 1520UNK    C0413676  28.052   3.927   6.857  0.4667  0.0179  0.4746
 1520UNK    F0513677  28.034   3.816   6.935 -0.3591  0.0362  0.3078
 1520UNK    F0613678  27.969   4.023   6.912 -0.2587 -0.0998  0.1517
 1520UNK    F0713679  27.991   3.894   6.736 -0.1011  0.0986 -0.3658
 1520UNK    H0813680  28.204   4.043   6.768 -1.8386  0.7004  0.6541
 1521UNK    F0013681  29.270   0.127   8.538  0.2330 -0.0525 -0.7923
 1521UNK    C0113682  29.387   0.078   8.494  0.1303  0.1352  0.6754
 1521UNK    H0213683  29.445   0.153   8.439 -1.9961  0.5064 -1.1456
 1521UNK    C0313684  29.427  -0.037   8.546 -0.1001 -0.2059  0.1749
 1521UNK    C0413685  29.545  -0.110   8.494  0.1219 -0.4577 -0.5585
 1521UNK    F0513686  29.553  -0.084   8.363 -0.0917  0.0474 -0.1330
 1521UNK    F0613687  29.663  -0.063   8.538 -0.3004  0.5018  0.1998
 1521UNK    F0713688  29.550  -0.249   8.519  0.1666 -0.2126 -0.0613
 1521UNK    H0813689  29.356  -0.099   8.600  0.7093 -0.8017  0.5676
 1522UNK    F0013690  30.227   0.928   8.854  0.2552  0.4780 -0.0662
 1522UNK    C0113691  30.151   0.976   8.750 -0.2078  0.5720 -0.1647
 1522UNK    H0213692  30.180   0.922   8.659  2.2247  1.3697  0.1093
 1522UNK    C0313693  30.047   1.046   8.769  0.3964  0.4422  0.4249
 1522UNK    C0413694  30.049   1.195   8.772 -0.2489  0.2355  0.1358
 1522UNK    F0513695  30.093   1.246   8.655 -0.1938 -0.4100  0.2079
 1522UNK    F0613696  29.934   1.255   8.801 -0.4287 -0.2298  0.4733
 1522UNK    F0713697  30.134   1.228   8.867  0.2329 -0.3113 -0.4076
 1522UNK    H0813698  29.984   1.007   8.847 -0.5353  0.2142 -0.4282
 1523UNK    F0013699  35.918   2.244   7.844  0.1208 -0.2388 -0.1135
 1523UNK    C0113700  35.900   2.120   7.804 -0.0215 -0.2421  0.4628
 1523UNK    H0213701  35.856   2.120   7.705  1.8686 -0.0091 -0.3925
 1523UNK    C0313702  35.939   2.025   7.885  0.1119 -0.1265  0.1671
 1523UNK    C0413703  36.068   2.027   7.954  0.2896 -0.3105  0.2810
 1523UNK    F0513704  36.109   1.901   7.986 -0.1824 -0.4473  0.5266
 1523UNK    F0613705  36.168   2.084   7.884 -0.3836 -0.2539  0.1725
 1523UNK    F0713706  36.052   2.102   8.065  0.1464  0.0274  0.4381
 1523UNK    H0813707  35.864   1.959   7.926 -0.1203 -0.3531 -0.6159
 1524UNK    F0013708  27.288   3.884   7.056  0.1226  0.1476  0.0457
 1524UNK    C0113709  27.375   3.870   6.955 -0.5453  0.3518  0.2849
 1524UNK    H0213710  27.376   3.969   6.909 -0.5328 -0.3391 -1.2144
 1524UNK    C0313711  27.478   3.787   6.967 -0.0107  0.9317  0.0385
 1524UNK    C0413712  27.582   3.777   6.860  0.1973 -0.2656  0.0234
 1524UNK    F0513713  27.682   3.864   6.889 -0.4787 -0.4514 -0.9456
 1524UNK    F0613714  27.648   3.661   6.866  0.1541 -0.1960  0.0949
 1524UNK    F0713715  27.551   3.802   6.731  0.0817 -0.1147 -0.1281
 1524UNK    H0813716  27.469   3.698   7.027  0.9154  1.3531  0.8183
 1525UNK    F0013717  29.003   2.328   5.260  0.3193 -0.3411  0.2920
 1525UNK    C0113718  29.113   2.251   5.232 -0.1058 -0.2535 -0.3634
 1525UNK    H0213719  29.137   2.256   5.126  0.6151 -0.5182 -0.2181
 1525UNK    C0313720  29.168   2.186   5.329 -0.5647  0.9149 -0.5158
 1525UNK    C0413721  29.308   2.146   5.331 -0.2312 -0.6535  0.0981
 1525UNK    F0513722  29.338   2.098   5.210 -0.1978  0.4104 -0.2882
 1525UNK    F0613723  29.395   2.244   5.383  0.2664  0.2296 -0.2889
 1525UNK    F0713724  29.323   2.037   5.413 -0.1147  0.3767  0.0518
 1525UNK    H0813725  29.116   2.185   5.423 -0.3430  3.5702 -0.3285
 1526UNK    F0013726  29.752   2.465   6.391 -0.8273  0.2542  0.2442
 1526UNK    C0113727  29.700   2.359   6.448  0.6447 -0.8383 -0.1477
 1526UNK    H0213728  29.631   2.307   6.381 -0.3586  1.6950 -1.1500
 1526UNK    C0313729  29.714   2.348   6.579  0.1580 -0.4362  0.7500
 1526UNK    C0413730  29.746   2.227   6.656  0.0938  0.0421  0.1999
 1526UNK    F0513731  29.754   2.250   6.786  0.2827  0.1019 -0.8074
 1526UNK    F0613732  29.645   2.137   6.640  0.1696  0.4410  0.3235
 1526UNK    F0713733  29.860   2.166   6.608  0.3792 -0.4300  0.2840
 1526UNK    H0813734  29.697   2.433   6.643  1.7016  0.9574 -0.6427
 1527UNK    F0013735  29.181   2.687   6.900  0.4915 -0.6198 -0.2397
 1527UNK    C0113736  29.257   2.746   6.993 -0.7548 -0.2892 -0.2458
 1527UNK    H0213737  29.291   2.843   6.958 -0.2551 -0.8398 -1.3334
 1527UNK    C0313738  29.313   2.666   7.081  0.0140 -0.5451 -0.1205
 1527UNK    C0413739  29.360   2.705   7.216  0.3820 -1.0228 -0.4839
 1527UNK    F0513740  29.458   2.624   7.244 -0.0652  0.2103  0.2995
 1527UNK    F0613741  29.416   2.830   7.205  0.2679 -0.4448 -0.1139
 1527UNK    F0713742  29.258   2.703   7.310 -0.5161  0.4017  0.0872
 1527UNK    H0813743  29.348   2.568   7.051 -0.7066 -0.8644  0.0714
 1528UNK    F0013744  29.005   4.744   8.063 -0.0088 -0.7141  0.0431
 1528UNK    C0113745  29.074   4.697   7.955 -0.2922 -0.5181  0.1884
 1528UNK    H0213746  29.049   4.594   7.929 -0.4084 -0.3803 -0.2508
 1528UNK    C0313747  29.161   4.779   7.891  0.0633 -0.2413 -0.6956
 1528UNK    C0413748  29.197   4.752   7.748  0.7811 -0.3566 -0.3007
 1528UNK    F0513749  29.315   4.816   7.721 -0.1747  0.0336 -0.0734
 1528UNK    F0613750  29.215   4.616   7.728  0.5259  0.1853  0.1704
 1528UNK    F0713751  29.105   4.802   7.657  0.4932 -0.1924 -0.0329
 1528UNK    H0813752  29.244   4.824   7.944 -0.0329 -0.5829 -0.2640
 1529UNK    F0013753  27.850   2.824   7.174 -0.1147 -0.5091  0.1557
 1529UNK    C0113754  27.743   2.782   7.103 -0.3351  0.6355 -0.2001
 1529UNK    H0213755  27.684   2.721   7.170 -1.3025  2.4794  0.6695
 1529UNK    C0313756  27.775   2.746   6.978 -0.0903  0.3328  0.4908
 1529UNK    C0413757  27.850   2.621   6.952  0.0251  0.1268 -0.4309
 1529UNK    F0513758  27.957   2.620   7.036 -0.3241  0.2164  0.0154
 1529UNK    F0613759  27.762   2.525   6.982  0.2090 -0.1228  0.0328
 1529UNK    F0713760  27.883   2.599   6.822  0.1175 -0.4249 -0.0741
 1529UNK    H0813761  27.789   2.821   6.902  2.5907 -0.6318 -0.0304
 1530UNK    F0013762  28.336   0.233   2.131 -0.6694 -0.5679  0.5577
 1530UNK    C0113763  28.203   0.240   2.141 -0.3211  0.1364  0.6156
 1530UNK    H0213764  28.183   0.204   2.242  2.4438 -1.9250  0.5115
 1530UNK    C0313765  28.117   0.256   2.038  0.2335  0.6948 -0.3568
 1530UNK    C0413766  28.031   0.153   1.973 -0.2100 -0.0336 -0.4689
 1530UNK    F0513767  27.959   0.075   2.057 -0.3890 -0.3765 -0.9022
 1530UNK    F0613768  27.945   0.209   1.888  0.1192 -0.0588  0.5407
 1530UNK    F0713769  28.121   0.081   1.903 -0.3905 -0.2974 -0.3811
 1530UNK    H0813770  28.137   0.345   1.981 -1.2680  1.5481  0.4274
 1531UNK    F0013771  29.292   1.408   6.445  0.0521 -0.4588 -0.0297
 1531UNK    C0113772  29.305   1.277   6.456  0.0222 -0.6454  0.2253
 1531UNK    H0213773  29.257   1.229   6.371 -1.7120  2.5200 -0.6261
 1531UNK    C0313774  29.380   1.221   6.553  0.0981  0.5093  0.0450
 1531UNK    C0413775  29.354   1.088   6.620 -0.0730  0.3746 -0.4656
 1531UNK    F0513776  29.415   1.097   6.741 -0.0389 -0.5189 -0.4838
 1531UNK    F0613777  29.223   1.051   6.630 -0.3285  0.1488 -0.1438
 1531UNK    F0713778  29.418   0.987   6.556  0.0948 -0.1892 -0.2205
 1531UNK    H0813779  29.459   1.274   6.604  2.8263 -3.1532 -0.1209
 1532UNK    F0013780  29.110   3.488   6.688  0.7425  0.0468  0.1345
 1532UNK    C0113781  29.220   3.515   6.619 -0.0066  0.3451  0.2069
 1532UNK    H0213782  29.301   3.444   6.636 -0.2449  0.5055  2.1512
 1532UNK    C0313783  29.226   3.645   6.580  0.6589  0.3700 -0.2660
 1532UNK    C0413784  29.250   3.682   6.437 -0.0815  0.3364 -0.3689
 1532UNK    F0513785  29.326   3.792   6.441  0.2603 -0.6773 -0.0252
 1532UNK    F0613786  29.318   3.588   6.365  0.5050  0.0153  0.3012
 1532UNK    F0713787  29.140   3.710   6.366  0.0042  0.3134 -0.5686
 1532UNK    H0813788  29.242   3.722   6.654 -1.1899  0.9282 -0.4292
 1533UNK    F0013789  27.946   5.035   8.903 -0.2483 -0.1339  0.2641
 1533UNK    C0113790  27.814   5.054   8.922  0.8225 -0.0089 -0.3327
 1533UNK    H0213791  27.760   4.970   8.879 -0.0301 -1.1290  2.8199
 1533UNK    C0313792  27.767   5.136   9.015 -0.2891  0.1875 -0.0118
 1533UNK    C0413793  27.826   5.165   9.143  0.2404 -0.0820 -0.3210
 1533UNK    F0513794  27.714   5.206   9.208 -0.1780 -0.0949  0.3524
 1533UNK    F0613795  27.885   5.064   9.209  0.1819 -0.0353  0.1601
 1533UNK    F0713796  27.916   5.268   9.133 -0.3335 -0.1603 -0.1723
 1533UNK    H0813797  27.677   5.190   8.989 -0.7987 -0.4286  0.4858
 1534UNK    F0013798  29.084   5.109   8.766  0.2853 -0.1291 -0.7720
 1534UNK    C0113799  29.092   4.979   8.794  0.1512  0.3740  0.1605
 1534UNK    H0213800  29.067   4.948   8.896  0.0136  0.5301  0.1740
 1534UNK    C0313801  29.050   4.901   8.692 -0.1794  0.3100  0.7895
 1534UNK    C0413802  28.935   4.814   8.711  0.1797 -0.2808  0.7096
 1534UNK    F0513803  28.911   4.720   8.619 -0.3246  0.3493 -0.6303
 1534UNK    F0613804  28.947   4.752   8.829  0.6180 -0.0425  0.5798
 1534UNK    F0713805  28.822   4.894   8.730  0.3881  0.5127  0.0174
 1534UNK    H0813806  29.123   4.863   8.622  0.8658  1.7758  1.0411
 1535UNK    F0013807  28.047   0.843   5.421 -0.3811 -0.1024 -0.0947
 1535UNK    C0113808  28.157   0.765   5.393  0.6538 -0.1037  0.0802
 1535UNK    H0213809  28.128   0.660   5.386  1.7385 -0.3516 -0.7638
 1535UNK    C0313810  28.271   0.815   5.435  0.3633  0.3133 -0.2092
 1535UNK    C0413811  28.399   0.772   5.390 -0.4485  0.4219  0.0255
 1535UNK    F0513812  28.437   0.845   5.282 -0.0558 -0.8883 -0.0672
 1535UNK    F0613813  28.498   0.804   5.476 -0.2365  0.0491  0.3315
 1535UNK    F0713814  28.407   0.642   5.360 -0.0182  0.2984  0.2316
 1535UNK    H0813815  28.280   0.889   5.513  1.5065  1.3960 -1.3563
 1536UNK    F0013816  27.539   3.581   5.561  0.3939  0.2058 -0.8902
 1536UNK    C0113817  27.532   3.602   5.434  0.1166 -0.0597  0.2934
 1536UNK    H0213818  27.452   3.547   5.385  0.7299 -0.3887 -0.3381
 1536UNK    C0313819  27.578   3.719   5.390 -0.3156  0.0181  0.5601
 1536UNK    C0413820  27.540   3.847   5.445 -0.6690  0.2786 -0.4923
 1536UNK    F0513821  27.541   3.932   5.344  0.7821 -0.8855 -0.2940
 1536UNK    F0613822  27.417   3.851   5.507 -0.2628 -0.0974  0.0851
 1536UNK    F0713823  27.623   3.891   5.538 -0.2858  0.2459  0.4961
 1536UNK    H0813824  27.683   3.717   5.364 -0.9360 -0.5053 -2.0730
 1537UNK    F0013825  28.339   1.256   5.039 -0.1597  0.1126  0.0607
 1537UNK    C0113826  28.399   1.295   5.155 -0.1316 -0.0862  1.1060
 1537UNK    H0213827  28.485   1.231   5.173  1.3194  0.4954 -2.9967
 1537UNK    C0313828  28.376   1.416   5.202 -0.1316  0.4312  0.6930
 1537UNK    C0413829  28.472   1.476   5.296  0.4678  0.5510  0.2624
 1537UNK    F0513830  28.578   1.519   5.224  0.7965 -0.1017  0.3307
 1537UNK    F0613831  28.400   1.569   5.355  0.0386 -0.3581  0.1444
 1537UNK    F0713832  28.504   1.382   5.391 -0.2888 -0.6259 -0.1231
 1537UNK    H0813833  28.295   1.479   5.170  0.1889 -0.0034 -1.0298
 1538UNK    F0013834  29.844   4.804   8.829  0.5530 -0.6183 -0.0213
 1538UNK    C0113835  29.937   4.755   8.742  0.5076  0.0986  0.2531
 1538UNK    H0213836  30.032   4.737   8.793  0.0068  1.6508  1.7911
 1538UNK    C0313837  29.939   4.798   8.615  0.4676 -0.0921 -0.5722
 1538UNK    C0413838  29.988   4.704   8.518 -0.4873  0.4309 -0.0427
 1538UNK    F0513839  29.981   4.760   8.398 -0.5592 -0.2731  0.1057
 1538UNK    F0613840  30.119   4.672   8.534 -0.1207  0.2646  0.3195
 1538UNK    F0713841  29.915   4.586   8.519  0.0267  0.0395 -0.0957
 1538UNK    H0813842  29.876   4.875   8.573 -1.0295 -0.5221  0.8070
 1539UNK    F0013843  28.011   1.270   4.990  0.0509 -0.0794 -0.2072
 1539UNK    C0113844  27.952   1.226   5.105 -0.3188  0.1258  0.5260
 1539UNK    H0213845  27.890   1.139   5.081  0.9990 -0.4834 -0.7669
 1539UNK    C0313846  27.951   1.302   5.210 -0.2578  0.2370  0.4329
 1539UNK    C0413847  27.919   1.270   5.350 -0.1646  0.0490  0.5704
 1539UNK    F0513848  27.830   1.166   5.360  0.1213 -0.0402  0.1999
 1539UNK    F0613849  28.027   1.216   5.419  0.6026  0.1185 -0.2947
 1539UNK    F0713850  27.860   1.372   5.419 -0.1437 -0.2424 -0.3652
 1539UNK    H0813851  27.968   1.408   5.197 -1.1534  0.2334 -0.8855
 1540UNK    F0013852  28.012   4.372   5.597 -0.5294  0.2414  0.1755
 1540UNK    C0113853  28.089   4.257   5.590 -0.1848 -0.1542 -0.4469
 1540UNK    H0213854  28.036   4.169   5.554  1.2274 -0.8551 -0.8447
 1540UNK    C0313855  28.220   4.265   5.604 -0.2419  0.0102  0.4435
 1540UNK    C0413856  28.312   4.330   5.510 -0.1719  0.1934 -0.4691
 1540UNK    F0513857  28.286   4.460   5.509 -0.1603  0.5416  0.5254
 1540UNK    F0613858  28.439   4.291   5.539 -0.4313 -0.1895  0.0626
 1540UNK    F0713859  28.286   4.281   5.387 -0.5673  0.5954 -0.0498
 1540UNK    H0813860  28.262   4.261   5.703 -1.1915 -0.1250  0.8471
 1541UNK    F0013861  29.106   0.228   8.819 -0.0200  0.5135 -0.3212
 1541UNK    C0113862  29.044   0.213   8.707 -0.2337 -0.4199  0.6578
 1541UNK    H0213863  29.105   0.236   8.620  0.0618  0.0262  0.9839
 1541UNK    C0313864  28.913   0.196   8.702 -0.0052  0.4896 -0.2016
 1541UNK    C0413865  28.823   0.114   8.625 -0.2279  0.2621  0.5800
 1541UNK    F0513866  28.708   0.177   8.606 -0.4554 -0.5422 -0.2362
 1541UNK    F0613867  28.869   0.076   8.507 -0.5282  0.2835 -0.4239
 1541UNK    F0713868  28.787  -0.005   8.683 -0.6501 -0.4424  0.0140
 1541UNK    H0813869  28.852   0.253   8.770 -0.5878 -0.5718  0.1758
 1542UNK    F0013870  28.890   3.620   5.478 -0.1164 -0.4016 -0.7855
 1542UNK    C0113871  28.960   3.737   5.482  0.0358 -0.1663 -0.0194
 1542UNK    H0213872  29.024   3.748   5.395  1.0435  1.0370  0.8577
 1542UNK    C0313873  28.957   3.824   5.585 -0.3699 -0.0312 -0.8284
 1542UNK    C0413874  29.023   3.953   5.586  0.6236 -0.0124 -0.3064
 1542UNK    F0513875  29.147   3.935   5.534  0.1925 -0.2357 -0.1235
 1542UNK    F0613876  28.955   4.039   5.503 -0.3705  0.0283  0.0818
 1542UNK    F0713877  29.039   4.013   5.712  0.1546  0.5176  0.3546
 1542UNK    H0813878  28.876   3.820   5.657 -0.2182 -0.3262 -0.6705
 1543UNK    F0013879  28.654   2.804   4.198  0.2086 -0.3738 -0.3960
 1543UNK    C0113880  28.594   2.868   4.298  0.1757 -0.4637 -0.3167
 1543UNK    H0213881  28.630   2.832   4.394 -0.6885  1.6968  0.8660
 1543UNK    C0313882  28.487   2.936   4.272 -0.3347  0.4214  0.6431
 1543UNK    C0413883  28.423   3.028   4.375 -0.0577  0.6279  0.1740
 1543UNK    F0513884  28.297   3.052   4.344  0.0613 -0.0430 -0.8052
 1543UNK    F0613885  28.407   2.962   4.488  0.1168 -0.1121  0.3059
 1543UNK    F0713886  28.484   3.144   4.396 -0.0606  0.6214  0.6476
 1543UNK    H0813887  28.490   2.975   4.172  1.2566  0.8580  0.8489
 1544UNK    F0013888  28.947   1.788   7.778  0.4495  0.0314  0.0286
 1544UNK    C0113889  28.871   1.746   7.679  0.7592 -0.2455 -1.0519
 1544UNK    H0213890  28.887   1.818   7.598 -0.2698 -0.9066 -1.8610
 1544UNK    C0313891  28.805   1.628   7.690  1.8475  0.5521  0.3601
 1544UNK    C0413892  28.703   1.580   7.599 -0.6172  0.5855 -0.4551
 1544UNK    F0513893  28.760   1.510   7.503  0.3743  0.4206  0.0491
 1544UNK    F0613894  28.625   1.491   7.670 -0.4440 -0.2190 -0.0754
 1544UNK    F0713895  28.631   1.679   7.541  0.0367  0.4201 -0.1354
 1544UNK    H0813896  28.854   1.539   7.727  1.6931  0.4374  0.2907
 1545UNK    F0013897  29.736   4.363   5.751 -0.3566  0.2007  0.0694
 1545UNK    C0113898  29.639   4.320   5.671 -0.0834 -0.6210 -0.5744
 1545UNK    H0213899  29.685   4.266   5.588  0.4766  0.3836 -0.9226
 1545UNK    C0313900  29.515   4.315   5.706 -0.5337 -0.6926 -0.1050
 1545UNK    C0413901  29.488   4.252   5.837  0.2025 -0.8463 -0.2563
 1545UNK    F0513902  29.355   4.230   5.847  0.0150 -0.5513 -0.0190
 1545UNK    F0613903  29.542   4.125   5.823  0.0817  0.1782 -0.5452
 1545UNK    F0713904  29.546   4.322   5.940  0.2528  0.2926  0.0287
 1545UNK    H0813905  29.456   4.403   5.688 -0.7942 -0.9786 -0.6560
 1546UNK    F0013906  28.032   2.590   6.439  0.5619 -0.7000  0.0501
 1546UNK    C0113907  28.131   2.510   6.401 -0.2639  0.0089 -0.1761
 1546UNK    H0213908  28.097   2.442   6.323 -1.6876  0.2967  0.1764
 1546UNK    C0313909  28.255   2.506   6.460  0.3388 -0.0597 -0.0632
 1546UNK    C0413910  28.337   2.388   6.437 -0.3709 -0.4001  0.2778
 1546UNK    F0513911  28.281   2.269   6.432 -0.3921  0.2555 -0.2217
 1546UNK    F0613912  28.394   2.390   6.313  0.5611 -0.9781 -0.5864
 1546UNK    F0713913  28.445   2.392   6.522  0.0430  0.3309 -0.0194
 1546UNK    H0813914  28.315   2.595   6.471 -0.1181  0.3122 -0.5538
 1547UNK    F0013915  40.332   4.975   3.385  0.1050  0.1045 -0.3573
 1547UNK    C0113916  40.435   4.898   3.345  0.6219  0.4378 -0.7384
 1547UNK    H0213917  40.410   4.798   3.307  0.2080 -0.0521  0.7706
 1547UNK    C0313918  40.558   4.942   3.357  0.8159  0.0005 -0.2733
 1547UNK    C0413919  40.634   4.917   3.232 -0.3744 -0.9557  0.2569
 1547UNK    F0513920  40.599   5.004   3.131  0.6856  0.0186 -0.2737
 1547UNK    F0613921  40.761   4.948   3.252  0.0238 -0.0207  0.0331
 1547UNK    F0713922  40.610   4.793   3.188 -0.5191 -0.0417  0.3068
 1547UNK    H0813923  40.570   5.043   3.393 -0.1532 -0.0064  0.1056
 1548UNK    F0013924  30.008   3.409   7.652  0.1011 -0.5531 -0.2989
 1548UNK    C0113925  29.950   3.451   7.769  1.2177  0.1829  0.4018
 1548UNK    H0213926  30.015   3.519   7.823 -2.0503  3.0303  0.8818
 1548UNK    C0313927  29.814   3.445   7.779 -0.5343  0.7878  0.5933
 1548UNK    C0413928  29.722   3.547   7.844 -0.2326 -1.0039 -0.2817
 1548UNK    F0513929  29.605   3.478   7.884  0.0784  0.1550 -0.6226
 1548UNK    F0613930  29.772   3.602   7.960  0.1626  0.1222 -0.2054
 1548UNK    F0713931  29.678   3.645   7.759 -0.1337 -0.4475  0.1634
 1548UNK    H0813932  29.763   3.365   7.728 -2.8230  3.8719 -2.1531
 1549UNK    F0013933  27.812   2.593   5.135  0.1837 -0.2800 -0.2584
 1549UNK    C0113934  27.835   2.654   5.257 -0.4084  0.6716 -0.2226
 1549UNK    H0213935  27.936   2.695   5.253 -0.3301  0.4357 -0.6731
 1549UNK    C0313936  27.738   2.702   5.332 -0.3115 -0.1575  0.0383
 1549UNK    C0413937  27.629   2.615   5.388 -0.1377  0.2761 -0.2835
 1549UNK    F0513938  27.594   2.521   5.307  0.1534 -0.6609  0.2450
 1549UNK    F0613939  27.656   2.565   5.511 -0.6382  0.1646 -0.2991
 1549UNK    F0713940  27.521   2.694   5.404 -0.0566  0.4463 -0.0117
 1549UNK    H0813941  27.699   2.799   5.306  1.9819  1.1982  1.4716
 1550UNK    F0013942  28.292   2.702   5.870  0.7200 -0.1024  0.2735
 1550UNK    C0113943  28.363   2.704   5.751 -0.1230 -0.0416 -0.2026
 1550UNK    H0213944  28.431   2.620   5.738  1.0223  0.3817  2.6324
 1550UNK    C0313945  28.342   2.800   5.666 -0.4678 -0.3486  0.1028
 1550UNK    C0413946  28.398   2.934   5.672 -0.2344  0.8766 -0.6091
 1550UNK    F0513947  28.317   3.017   5.609  0.0208 -0.2241  0.6799
 1550UNK    F0613948  28.405   2.977   5.798 -0.2704  0.3058 -0.1407
 1550UNK    F0713949  28.519   2.947   5.621 -0.1696 -0.8732 -0.2184
 1550UNK    H0813950  28.255   2.785   5.603  0.2958  1.4049 -1.4147
 1551UNK    F0013951  28.474   1.934  11.110 -0.1403  0.6223 -0.0130
 1551UNK    C0113952  28.479   2.065  11.108 -0.5108  0.5751 -0.0288
 1551UNK    H0213953  28.478   2.099  11.005  0.4441  1.3142  0.2012
 1551UNK    C0313954  28.470   2.140  11.220  0.1037  0.6557 -0.3319
 1551UNK    C0413955  28.418   2.076  11.339  0.0238 -0.0904  0.5154
 1551UNK    F0513956  28.312   1.999  11.301  0.6959  0.4363  0.1800
 1551UNK    F0613957  28.513   1.995  11.392 -0.3015 -0.5350  0.2304
 1551UNK    F0713958  28.375   2.164  11.431  0.0938 -0.4740 -0.4718
 1551UNK    H0813959  28.552   2.203  11.249 -0.3105  0.2703  1.7743
 1552UNK    F0013960  29.689   3.623   8.840  0.1546  0.4784  0.3171
 1552UNK    C0113961  29.563   3.662   8.864 -0.5160 -0.3958 -0.7191
 1552UNK    H0213962  29.561   3.729   8.950  0.8353 -0.1394 -0.8679
 1552UNK    C0313963  29.469   3.619   8.782 -0.0159  0.3276  0.0268
 1552UNK    C0413964  29.421   3.480   8.786 -0.1595 -0.3928  0.2495
 1552UNK    F0513965  29.509   3.383   8.826 -0.1374  0.1589  0.8558
 1552UNK    F0613966  29.310   3.471   8.866  0.2634 -0.1356  0.2305
 1552UNK    F0713967  29.366   3.439   8.671  0.6585 -0.2427  0.0486
 1552UNK    H0813968  29.445   3.684   8.699  0.4747  1.3223  0.6555
 1553UNK    F0013969  29.335   3.195   8.542 -0.0563 -0.1650  0.0344
 1553UNK    C0113970  29.220   3.199   8.473  0.0441  0.2814  0.7411
 1553UNK    H0213971  29.212   3.274   8.394  0.8429  0.7188  1.0704
 1553UNK    C0313972  29.124   3.113   8.503  0.5992  0.0721  0.1622
 1553UNK    C0413973  29.151   2.966   8.520 -0.0341 -0.0579 -0.4616
 1553UNK    F0513974  29.254   2.934   8.441 -0.0669  0.1928 -0.1171
 1553UNK    F0613975  29.180   2.916   8.646 -0.5209  0.9375 -0.5296
 1553UNK    F0713976  29.040   2.897   8.477  0.3079 -0.0302  0.1521
 1553UNK    H0813977  29.027   3.137   8.545  1.7474  3.2393  1.1896
 1554UNK    F0013978  28.150   1.067   6.491  0.1757  0.0190 -0.3303
 1554UNK    C0113979  28.047   1.051   6.406 -0.0831 -0.2036 -0.4573
 1554UNK    H0213980  27.982   1.138   6.403  1.9503  1.3487 -0.7942
 1554UNK    C0313981  28.066   0.957   6.315  0.1976 -0.1768  0.2744
 1554UNK    C0413982  27.996   0.952   6.193  0.6798 -0.2406  0.0490
 1554UNK    F0513983  28.031   0.860   6.097 -0.4277  0.3942  0.2574
 1554UNK    F0613984  27.863   0.955   6.211  0.3909 -0.1277 -0.1129
 1554UNK    F0713985  28.019   1.072   6.135 -0.2899 -0.5871 -0.1130
 1554UNK    H0813986  28.125   0.869   6.336  0.4653  0.1779  1.0062
 1555UNK    F0013987  28.316   1.848   4.707  0.5883 -0.2884  0.0062
 1555UNK    C0113988  28.422   1.892   4.777 -0.2862 -0.3475 -0.4374
 1555UNK    H0213989  28.509   1.916   4.716 -0.4240 -1.2993 -1.0244
 1555UNK    C0313990  28.426   1.867   4.904  0.7727 -0.4940 -0.3289
 1555UNK    C0413991  28.418   1.732   4.959  0.4258  0.1193 -0.0649
 1555UNK    F0513992  28.362   1.719   5.086  0.0493  0.7162  0.1988
 1555UNK    F0613993  28.351   1.647   4.881 -0.3705  0.1701  0.5415
 1555UNK    F0713994  28.539   1.670   4.976 -0.0546 -0.1426 -0.6281
 1555UNK    H0813995  28.382   1.941   4.970  1.6358 -1.8918  1.8894
 1556UNK    F0013996  29.017   1.405   6.110  0.8097  0.1600 -0.1431
 1556UNK    C0113997  28.899   1.359   6.091  0.7712  0.1026  0.2808
 1556UNK    H0213998  28.826   1.439   6.105  2.1392  1.4533 -0.1879
 1556UNK    C0313999  28.880   1.225   6.090 -0.7118  0.0121  0.7627
 1556UNK    C0414000  28.870   1.139   6.209 -0.0100 -0.8388 -1.1118
 1556UNK    F0514001  28.958   1.184   6.309  0.2702  0.2742  0.1339
 1556UNK    F0614002  28.755   1.149   6.278  0.7412  0.1022  0.1633
 1556UNK    F0714003  28.895   1.012   6.188 -1.0679  0.1353 -0.5284
 1556UNK    H0814004  28.822   1.188   6.006  1.1918 -1.3170 -0.0031
 1557UNK    F0014005  29.761   4.787   7.298  0.0402  0.1269  0.1753
 1557UNK    C0114006  29.756   4.911   7.262 -0.7496  0.2403 -0.0034
 1557UNK    H0214007  29.766   4.985   7.341  0.9566 -0.7222  0.6978
 1557UNK    C0314008  29.780   4.943   7.132 -0.0901  1.3745 -0.4459
 1557UNK    C0414009  29.679   4.924   7.024  0.0267  0.1136  0.0669
 1557UNK    F0514010  29.743   4.921   6.906  0.2419 -0.1406 -0.0344
 1557UNK    F0614011  29.611   4.805   7.034  0.5439  0.5606 -0.3553
 1557UNK    F0714012  29.590   5.031   7.035  0.0181 -0.0955 -0.6479
 1557UNK    H0814013  29.880   4.971   7.104  0.3642  0.4814  0.2568
 1558UNK    F0014014  29.832   2.385   7.141  0.0174 -0.5644  0.2807
 1558UNK    C0114015  29.852   2.505   7.085 -0.1019 -0.3051  0.2083
 1558UNK    H0214016  29.949   2.490   7.036  0.9311 -2.7814  2.8106
 1558UNK    C0314017  29.757   2.600   7.066 -0.4698 -0.3563 -0.4714
 1558UNK    C0414018  29.787   2.709   6.968  0.9626  0.1560 -0.4616
 1558UNK    F0514019  29.719   2.825   6.983  0.5656  0.6451 -0.1295
 1558UNK    F0614020  29.914   2.753   6.982  0.1048  0.0239  0.3282
 1558UNK    F0714021  29.764   2.670   6.839  0.1085 -0.2240 -0.0730
 1558UNK    H0814022  29.692   2.623   7.149  0.9033 -0.6478  0.6979
 1559UNK    F0014023  30.527   2.549   8.993 -0.1350 -0.1443 -0.3313
 1559UNK    C0114024  30.455   2.535   8.882 -0.3296  0.0694  0.1961
 1559UNK    H0214025  30.452   2.429   8.855  0.4573  0.7282 -2.6792
 1559UNK    C0314026  30.399   2.637   8.824 -0.0236 -0.0950  0.8195
 1559UNK    C0414027  30.288   2.633   8.729 -0.2667 -0.3672 -0.8430
 1559UNK    F0514028  30.175   2.674   8.795 -0.9893 -0.0693 -0.0091
 1559UNK    F0614029  30.300   2.703   8.618  0.1767  0.1518 -0.2043
 1559UNK    F0714030  30.262   2.500   8.700  0.1452  0.2249  0.1856
 1559UNK    H0814031  30.452   2.731   8.821  0.3957 -0.3026  1.7331
 1560UNK    F0014032  27.814   3.391  10.248  0.0753 -0.1268 -0.2163
 1560UNK    C0114033  27.921   3.307  10.244  0.1316 -0.3388  0.8760
 1560UNK    H0214034  27.929   3.252  10.338  2.2111 -1.7776 -0.0975
 1560UNK    C0314035  27.983   3.288  10.130  0.8813  0.1755 -0.8465
 1560UNK    C0414036  28.105   3.208  10.120 -0.6452  0.5325  0.2772
 1560UNK    F0514037  28.153   3.214   9.992  0.3045 -0.1773  0.1645
 1560UNK    F0614038  28.208   3.260  10.196 -0.0939  0.1213  0.1062
 1560UNK    F0714039  28.096   3.078  10.161  0.2891 -0.2668  0.1787
 1560UNK    H0814040  27.939   3.335  10.043  0.2032  0.4853 -0.3455
 1561UNK    F0014041  28.575   3.557   9.517  0.0988  0.1497 -0.1956
 1561UNK    C0114042  28.648   3.547   9.409  0.3835  0.1967  0.1717
 1561UNK    H0214043  28.672   3.644   9.365  0.6283 -0.4887 -1.2377
 1561UNK    C0314044  28.666   3.428   9.351  0.2554 -0.2117  0.1858
 1561UNK    C0414045  28.557   3.368   9.271 -0.5142 -0.3059  0.3348
 1561UNK    F0514046  28.555   3.404   9.144 -0.2200 -0.3432  0.1651
 1561UNK    F0614047  28.574   3.239   9.247 -0.0423 -0.0891 -0.4924
 1561UNK    F0714048  28.440   3.367   9.340  0.3168 -0.1043  0.5032
 1561UNK    H0814049  28.761   3.421   9.299 -0.1239  0.1958 -0.5731
 1562UNK    F0014050  28.730   3.914   8.801 -0.4296 -0.0862 -0.5252
 1562UNK    C0114051  28.784   4.043   8.804 -0.3397  0.2356 -0.6852
 1562UNK    H0214052  28.709   4.120   8.791 -0.4731  0.7553  2.6476
 1562UNK    C0314053  28.906   4.049   8.858  0.2680  0.1631 -0.1242
 1562UNK    C0414054  28.966   4.161   8.929 -0.4964  0.1120 -0.4858
 1562UNK    F0514055  29.100   4.149   8.949 -0.0197  0.3595  0.4451
 1562UNK    F0614056  28.969   4.273   8.848  0.2872  0.0675 -0.1742
 1562UNK    F0714057  28.901   4.186   9.047 -0.4870 -0.4504  0.2575
 1562UNK    H0814058  28.946   3.955   8.892 -0.5294 -0.3138 -0.4902
 1563UNK    F0014059  28.677   0.532   3.915 -0.2792 -0.3001 -0.2546
 1563UNK    C0114060  28.725   0.615   4.009  0.4939  0.0857  0.1100
 1563UNK    H0214061  28.833   0.609   4.026  0.2536 -1.1228  1.3787
 1563UNK    C0314062  28.643   0.702   4.070 -0.8977 -0.8940 -0.3667
 1563UNK    C0414063  28.679   0.831   4.143  1.0341  0.1872  0.4411
 1563UNK    F0514064  28.579   0.874   4.225 -0.0661  0.1218  0.2215
 1563UNK    F0614065  28.795   0.812   4.214  0.1137  0.1646 -0.2187
 1563UNK    F0714066  28.709   0.933   4.051 -0.2283  0.4453 -0.3005
 1563UNK    H0814067  28.554   0.712   4.011 -2.2503  0.0868  1.7737
 1564UNK    F0014068  30.271   1.271  14.157 -0.2916  0.2569 -0.2232
 1564UNK    C0114069  30.184   1.221  14.247 -0.0974  0.5496  0.3614
 1564UNK    H0214070  30.137   1.302  14.303 -0.9186 -0.5615  1.3048
 1564UNK    C0314071  30.225   1.111  14.301 -0.0375  0.4691  0.6937
 1564UNK    C0414072  30.149   1.022  14.393  0.3140 -0.9968  0.5785
 1564UNK    F0514073  30.065   1.091  14.469 -0.5966 -0.1732  0.2556
 1564UNK    F0614074  30.067   0.944  14.312  0.6964 -0.1610 -0.0944
 1564UNK    F0714075  30.231   0.943  14.467 -0.4226 -0.0474  0.1452
 1564UNK    H0814076  30.331   1.099  14.315  0.2213  0.8828 -0.8294
 1565UNK    F0014077  29.336   2.055   7.758 -0.3192 -0.4992  0.0121
 1565UNK    C0114078  29.385   1.941   7.818  0.1880 -0.4532 -0.1677
 1565UNK    H0214079  29.303   1.891   7.869 -0.4234  2.5614  1.9721
 1565UNK    C0314080  29.516   1.927   7.820 -0.0849  0.0148 -0.1903
 1565UNK    C0414081  29.580   1.948   7.952  0.5040  0.2397  0.0364
 1565UNK    F0514082  29.707   1.979   7.943 -0.1312  0.4478  0.6190
 1565UNK    F0614083  29.520   2.053   8.014 -0.1396  0.4184  0.5944
 1565UNK    F0714084  29.552   1.840   8.031  0.2326 -0.2031 -0.1080
 1565UNK    H0814085  29.578   1.937   7.732  0.6704  0.1558  0.3489
 1566UNK    F0014086  30.175   2.490   9.451  0.0897  0.1984 -0.8614
 1566UNK    C0114087  30.145   2.556   9.557 -0.9138  0.1520  0.2376
 1566UNK    H0214088  30.055   2.618   9.550 -0.1279  1.6542  2.7801
 1566UNK    C0314089  30.191   2.521   9.668  0.1365  0.0951  0.6727
 1566UNK    C0414090  30.167   2.600   9.787 -0.1947  0.7130  0.5605
 1566UNK    F0514091  30.242   2.552   9.886 -0.1961 -0.0635 -0.1095
 1566UNK    F0614092  30.215   2.724   9.772  0.0409 -0.8629 -0.4819
 1566UNK    F0714093  30.032   2.608   9.827  0.3150 -0.2559  0.0383
 1566UNK    H0814094  30.261   2.439   9.676 -0.6690 -0.8258 -1.2382
 1567UNK    F0014095  28.341   1.044   4.758  0.0683  0.3041 -0.0487
 1567UNK    C0114096  28.377   0.997   4.878 -1.1170  0.4724  0.0661
 1567UNK    H0214097  28.485   0.984   4.888 -0.8997  1.1656 -1.2969
 1567UNK    C0314098  28.277   0.950   4.958 -0.2862 -0.2455  0.7483
 1567UNK    C0414099  28.207   0.822   4.949 -0.4234  0.3485  0.2367
 1567UNK    F0514100  28.167   0.797   4.825 -0.0590 -0.0235  0.0333
 1567UNK    F0614101  28.277   0.712   4.990  0.2533 -0.8028  0.4795
 1567UNK    F0714102  28.102   0.827   5.037  0.4085 -0.1807  0.2617
 1567UNK    H0814103  28.234   1.017   5.031  0.6572 -0.1523  1.2324
 1568UNK    F0014104  28.444   1.925   7.589 -0.0306  0.3357 -0.0234
 1568UNK    C0114105  28.422   1.845   7.697 -0.5301  0.0279 -0.5721
 1568UNK    H0214106  28.354   1.763   7.674 -0.1954 -0.8239  1.4046
 1568UNK    C0314107  28.513   1.849   7.793 -0.4126  0.0637  0.5296
 1568UNK    C0414108  28.550   1.970   7.877 -0.7168  0.2330 -0.3353
 1568UNK    F0514109  28.663   1.954   7.958  0.6965 -0.5901 -0.0488
 1568UNK    F0614110  28.562   2.082   7.798 -0.2329  0.2639 -0.2870
 1568UNK    F0714111  28.453   2.011   7.961  0.0128  0.2036  0.4625
 1568UNK    H0814112  28.592   1.776   7.787 -0.1609  0.1904  1.8846
 1569UNK    F0014113  28.414   5.143   9.549 -0.7693 -0.4994 -0.8955
 1569UNK    C0114114  28.518   5.054   9.572  0.8089  0.5130  0.1262
 1569UNK    H0214115  28.610   5.084   9.522  0.9128 -3.0669 -2.0344
 1569UNK    C0314116  28.510   4.966   9.675 -0.7188 -0.1446 -0.0890
 1569UNK    C0414117  28.452   4.837   9.653  0.1253 -0.0506 -0.2258
 1569UNK    F0514118  28.348   4.838   9.570  0.2704 -0.4310  0.1036
 1569UNK    F0614119  28.553   4.768   9.596  0.2164  0.0819 -0.3029
 1569UNK    F0714120  28.416   4.762   9.759  0.0099 -0.2308 -0.4949
 1569UNK    H0814121  28.488   4.996   9.776  0.1381 -2.0022  0.6636
 1570UNK    F0014122  28.698   2.385   5.987  0.1417 -0.3613  0.3293
 1570UNK    C0114123  28.693   2.369   6.124 -0.0404  0.1907 -0.1822
 1570UNK    H0214124  28.587   2.390   6.141  0.4902  1.4473  1.7421
 1570UNK    C0314125  28.784   2.290   6.176 -0.4626  0.2224 -0.2409
 1570UNK    C0414126  28.768   2.218   6.305  0.3881 -0.5426  0.7731
 1570UNK    F0514127  28.730   2.091   6.274  0.6396  0.0186  0.5023
 1570UNK    F0614128  28.882   2.202   6.374  0.2105 -0.2987 -0.2289
 1570UNK    F0714129  28.677   2.276   6.393 -0.1462 -0.2016 -0.1504
 1570UNK    H0814130  28.862   2.251   6.112 -1.3736 -3.2400  0.6032
 1571UNK    F0014131  28.222   0.428   4.504 -0.2598 -0.4189 -0.2422
 1571UNK    C0114132  28.345   0.454   4.542 -1.1418 -0.1971  0.4490
 1571UNK    H0214133  28.379   0.366   4.596 -1.3761 -1.4472 -1.4384
 1571UNK    C0314134  28.415   0.553   4.484 -0.1045 -0.6285 -0.0702
 1571UNK    C0414135  28.384   0.692   4.512 -0.6459 -0.4707  0.4529
 1571UNK    F0514136  28.444   0.778   4.423 -0.1729 -0.3803 -0.6480
 1571UNK    F0614137  28.255   0.717   4.507 -0.5298  0.1242  0.4284
 1571UNK    F0714138  28.422   0.724   4.637  0.2183  0.0312  0.4238
 1571UNK    H0814139  28.491   0.546   4.409  0.7528 -0.1751  0.7477
 1572UNK    F0014140  29.525   0.471   5.709  0.1426 -0.4592 -0.1761
 1572UNK    C0114141  29.493   0.555   5.614  1.0386 -0.5693  0.2119
 1572UNK    H0214142  29.527   0.657   5.632  1.5302 -1.0720  2.1536
 1572UNK    C0314143  29.400   0.519   5.535  0.4070  0.4674 -0.2404
 1572UNK    C0414144  29.370   0.579   5.408  0.0800 -0.0370 -0.7067
 1572UNK    F0514145  29.465   0.528   5.322 -0.3286 -0.2635 -0.4810
 1572UNK    F0614146  29.250   0.530   5.363 -0.3519 -0.2920 -0.5716
 1572UNK    F0714147  29.371   0.719   5.407 -0.4350  1.0671  0.2462
 1572UNK    H0814148  29.318   0.467   5.582  0.0933  0.2340 -1.0309
 1573UNK    F0014149  30.104   1.059   9.127  0.3199  0.5863  0.5767
 1573UNK    C0114150  30.096   1.170   9.196  0.3957  0.2006  0.0350
 1573UNK    H0214151  30.118   1.149   9.300 -0.1878 -1.0604 -0.0884
 1573UNK    C0314152  30.035   1.276   9.143 -0.1169 -0.5412  0.0442
 1573UNK    C0414153  29.893   1.302   9.151  0.5997  0.2395  0.8146
 1573UNK    F0514154  29.882   1.368   9.267 -0.5937 -0.0525 -0.0269
 1573UNK    F0614155  29.836   1.372   9.049 -0.9131 -0.0813  0.1450
 1573UNK    F0714156  29.819   1.186   9.171 -0.3680 -0.4492  0.1550
 1573UNK    H0814157  30.091   1.365   9.117  1.4185 -1.6985 -0.7163
 1574UNK    F0014158  28.861   1.166   7.655  0.1225  0.0026 -0.4376
 1574UNK    C0114159  28.842   1.036   7.637 -0.1875  0.0556 -0.2635
 1574UNK    H0214160  28.751   1.007   7.585 -0.2089 -1.1135  0.4170
 1574UNK    C0314161  28.935   0.963   7.688 -0.1961 -0.3378  0.9733
 1574UNK    C0414162  28.931   0.931   7.835 -0.6485  0.5376  0.1409
 1574UNK    F0514163  28.906   1.030   7.925 -0.3895 -0.0683 -0.1124
 1574UNK    F0614164  28.848   0.826   7.862  0.6810 -0.5607 -0.2647
 1574UNK    F0714165  29.046   0.878   7.878  0.6591  0.2274  0.1156
 1574UNK    H0814166  29.036   0.979   7.655 -0.6979  1.0274  0.0566
 1575UNK    F0014167  29.510   0.322   7.245 -0.3723  0.5474 -0.0761
 1575UNK    C0114168  29.574   0.216   7.201 -0.3464  1.0820  0.1931
 1575UNK    H0214169  29.525   0.123   7.228  0.7305  0.6047  0.5474
 1575UNK    C0314170  29.701   0.245   7.167  0.3573 -0.2863  1.5246
 1575UNK    C0414171  29.796   0.159   7.089 -0.0219  0.2458 -0.4010
 1575UNK    F0514172  29.780   0.189   6.960  0.3189 -0.2676  0.0343
 1575UNK    F0614173  29.926   0.169   7.121  0.3487 -0.3900  0.1993
 1575UNK    F0714174  29.752   0.034   7.120 -0.2447  0.0275 -0.1544
 1575UNK    H0814175  29.718   0.351   7.163  0.5449 -0.3325  1.1122
 1576UNK    F0014176  30.011   1.914   7.744  0.0161  0.1267 -0.4749
 1576UNK    C0114177  29.955   2.024   7.698  0.5553 -0.2978 -1.0333
 1576UNK    H0214178  30.008   2.113   7.731  2.5585 -1.6241 -0.5530
 1576UNK    C0314179  29.877   2.015   7.597  0.5614 -0.2591 -0.1317
 1576UNK    C0414180  29.867   2.128   7.508 -0.2034  0.0538 -0.2179
 1576UNK    F0514181  29.847   2.253   7.565  0.1237 -0.1641  0.1007
 1576UNK    F0614182  29.980   2.139   7.433 -0.1549 -0.1089 -0.0166
 1576UNK    F0714183  29.772   2.116   7.416  0.1002 -0.4303 -0.4916
 1576UNK    H0814184  29.847   1.917   7.562  1.7322 -0.9718  0.8092
 1577UNK    F0014185  29.078   5.108   9.437  0.5166  0.1940  0.4174
 1577UNK    C0114186  29.102   4.990   9.369  0.4911 -0.1877 -0.1810
 1577UNK    H0214187  29.059   4.987   9.269 -0.0554 -0.7638  0.0683
 1577UNK    C0314188  29.129   4.885   9.446  0.6842 -0.3057  0.1886
 1577UNK    C0414189  29.170   4.763   9.388 -0.0382 -0.0643  0.0892
 1577UNK    F0514190  29.193   4.663   9.471 -0.0019  0.0115  0.3453
 1577UNK    F0614191  29.070   4.713   9.307 -0.0572 -0.4609 -0.2156
 1577UNK    F0714192  29.275   4.773   9.303  0.0250  0.4465  0.3138
 1577UNK    H0814193  29.064   4.875   9.532 -2.1439  0.7037 -1.7800
 1578UNK    F0014194  37.131   3.929   6.297  0.4061 -0.3561  0.3266
 1578UNK    C0114195  37.107   4.049   6.249  0.3660 -0.9562 -0.0910
 1578UNK    H0214196  37.192   4.115   6.265 -0.8468  0.9160 -1.2944
 1578UNK    C0314197  36.984   4.088   6.210  0.4716  0.1841 -0.1555
 1578UNK    C0414198  36.963   4.222   6.160  0.8584  0.1089  0.5441
 1578UNK    F0514199  37.019   4.245   6.038 -0.1421  0.5733 -0.0279
 1578UNK    F0614200  36.835   4.225   6.138  0.3629  0.2644  0.0202
 1578UNK    F0714201  36.996   4.325   6.242  0.2766 -0.4697 -0.4503
 1578UNK    H0814202  36.892   4.037   6.236  0.0603  1.1618  0.3268
 1579UNK    F0014203  29.223   1.222   8.709  0.0699  0.1369 -0.1111
 1579UNK    C0114204  29.200   1.146   8.819  0.5986  0.1315 -0.6087
 1579UNK    H0214205  29.250   1.050   8.813 -1.2692 -0.8370 -0.9381
 1579UNK    C0314206  29.122   1.205   8.914  0.4426  0.0402 -0.3233
 1579UNK    C0414207  29.125   1.164   9.058 -0.3960  0.8091 -0.1851
 1579UNK    F0514208  29.140   1.272   9.132 -0.0360 -0.3329 -0.1118
 1579UNK    F0614209  29.007   1.107   9.096 -0.2178  0.9714 -0.2731
 1579UNK    F0714210  29.227   1.078   9.084 -0.6637  0.0297  0.6365
 1579UNK    H0814211  29.112   1.312   8.905  1.1101  0.1644  0.4059
 1580UNK    F0014212  27.572   5.133   8.279  0.5369  0.6881  0.1856
 1580UNK    C0114213  27.467   5.132   8.199 -0.1889  0.1556  0.1955
 1580UNK    H0214214  27.500   5.186   8.110 -1.0159  1.5730  0.7219
 1580UNK    C0314215  27.365   5.046   8.214  0.8981 -0.0102 -0.2777
 1580UNK    C0414216  27.244   5.066   8.129 -0.2254  0.1936  0.0362
 1580UNK    F0514217  27.127   5.026   8.185  0.7449  0.3747 -0.0847
 1580UNK    F0614218  27.232   5.191   8.075  0.7372  0.2332 -0.0917
 1580UNK    F0714219  27.251   4.985   8.023 -0.3468 -0.0610 -0.3849
 1580UNK    H0814220  27.352   4.987   8.303 -2.8347 -0.4893 -1.0343
 1581UNK    F0014221  28.262   3.342   9.556 -0.6979 -0.0099  0.2749
 1581UNK    C0114222  28.239   3.247   9.646 -0.4404 -0.0412 -0.7885
 1581UNK    H0214223  28.330   3.241   9.705  0.7609 -0.7466 -2.6837
 1581UNK    C0314224  28.135   3.165   9.635  0.5525 -0.5472  0.3654
 1581UNK    C0414225  28.138   3.056   9.531 -0.5431 -0.3124  0.0986
 1581UNK    F0514226  28.220   3.095   9.430  0.1110  0.4205 -0.0172
 1581UNK    F0614227  28.183   2.940   9.586 -0.2938  0.0694 -0.1175
 1581UNK    F0714228  28.012   3.034   9.476  0.0080 -0.6441 -0.4024
 1581UNK    H0814229  28.056   3.163   9.708 -0.3519 -1.3759 -0.6267
 1582UNK    F0014230  37.628   3.950  11.133  0.7048  0.1945  0.2029
 1582UNK    C0114231  37.592   3.961  11.008 -0.0065 -0.3368  0.2493
 1582UNK    H0214232  37.661   3.909  10.941 -1.7775 -0.6905 -1.3354
 1582UNK    C0314233  37.476   4.011  10.971  0.9507  0.0149 -0.8703
 1582UNK    C0414234  37.421   3.978  10.843  0.6954  0.0466  0.2640
 1582UNK    F0514235  37.306   4.048  10.822 -0.3198 -0.1167 -0.4639
 1582UNK    F0614236  37.515   4.007  10.753 -0.1682  0.1204  0.0120
 1582UNK    F0714237  37.402   3.849  10.817  0.1663 -0.5074 -0.0893
 1582UNK    H0814238  37.439   4.104  11.013  1.0034 -0.2433 -0.2453
 1583UNK    F0014239  28.304   0.962   9.969 -0.5022 -0.2864  0.5164
 1583UNK    C0114240  28.413   0.996  10.039 -0.1465  0.6465  0.8416
 1583UNK    H0214241  28.490   0.920  10.057 -0.1801 -0.0592 -1.8367
 1583UNK    C0314242  28.435   1.127  10.063  0.8804  0.2833  0.3117
 1583UNK    C0414243  28.571   1.167  10.103 -0.1490 -0.4953 -1.0019
 1583UNK    F0514244  28.640   1.221   9.998  0.6260 -0.3955  0.2908
 1583UNK    F0614245  28.567   1.262  10.202  0.3320  0.2140 -0.2719
 1583UNK    F0714246  28.647   1.071  10.152  0.0646 -0.5010  0.2379
 1583UNK    H0814247  28.366   1.206  10.038  0.2760 -0.3809 -0.1266
 1584UNK    F0014248  28.789   4.503   5.449  0.0372  0.0448 -0.3063
 1584UNK    C0114249  28.734   4.438   5.552  0.3003 -0.3083 -0.4877
 1584UNK    H0214250  28.650   4.377   5.518 -1.1097  1.6317 -0.5510
 1584UNK    C0314251  28.796   4.438   5.667  0.3735  0.6233 -0.3352
 1584UNK    C0414252  28.748   4.355   5.783 -0.6606 -0.2634  0.4861
 1584UNK    F0514253  28.782   4.224   5.778  0.0675 -0.2408  0.1525
 1584UNK    F0614254  28.807   4.399   5.901  0.0785  0.3945  0.2609
 1584UNK    F0714255  28.614   4.373   5.800 -0.1371  0.3729 -0.2453
 1584UNK    H0814256  28.892   4.486   5.683  0.5567 -1.0159  4.0413
 1585UNK    F0014257  38.664   0.929   4.591  0.1959 -0.4949  0.2709
 1585UNK    C0114258  38.727   0.843   4.679  0.2457 -0.3039 -1.2503
 1585UNK    H0214259  38.819   0.798   4.641  0.2228 -1.2791 -0.1583
 1585UNK    C0314260  38.640   0.786   4.763  0.5342 -0.0925 -0.4616
 1585UNK    C0414261  38.702   0.709   4.874 -0.2483 -0.3288 -0.0220
 1585UNK    F0514262  38.612   0.622   4.907  0.8990  0.1050 -0.4249
 1585UNK    F0614263  38.812   0.640   4.835 -0.2355 -0.9622 -0.0704
 1585UNK    F0714264  38.734   0.789   4.978 -0.0009  0.3636 -0.1609
 1585UNK    H0814265  38.535   0.809   4.768  0.4378  0.2765 -3.4177
 1586UNK    F0014266  28.594   3.209   6.188 -0.0912  0.3087  0.0618
 1586UNK    C0114267  28.528   3.149   6.090  0.1338  1.0253  0.9576
 1586UNK    H0214268  28.435   3.098   6.115 -0.2261  0.3721 -1.5854
 1586UNK    C0314269  28.593   3.131   5.972 -0.1449 -0.6234 -0.1245
 1586UNK    C0414270  28.703   3.039   5.931  0.1117 -0.1050  0.0435
 1586UNK    F0514271  28.779   3.002   6.038 -0.2468 -0.0732  0.1164
 1586UNK    F0614272  28.659   2.921   5.871  0.1293  0.5358  0.0837
 1586UNK    F0714273  28.782   3.095   5.835 -0.0108 -0.5438  0.5182
 1586UNK    H0814274  28.562   3.192   5.888 -1.6263 -1.1469  0.0212
 1587UNK    F0014275  28.474   1.019   6.355 -0.4029 -0.0369 -0.1555
 1587UNK    C0114276  28.523   0.955   6.462  0.6379 -0.7763 -0.2198
 1587UNK    H0214277  28.595   1.022   6.509  1.4730 -0.3225 -2.0853
 1587UNK    C0314278  28.450   0.861   6.527 -0.0530  0.5546 -0.4387
 1587UNK    C0414279  28.458   0.853   6.675 -0.2188 -0.4079 -0.3377
 1587UNK    F0514280  28.440   0.971   6.734  0.0871  0.2784  0.0861
 1587UNK    F0614281  28.364   0.763   6.710  0.1175  0.0893  0.4097
 1587UNK    F0714282  28.575   0.805   6.718  0.2182 -0.1710  0.3897
 1587UNK    H0814283  28.374   0.794   6.487  3.3625 -2.4192 -2.2935
 1588UNK    F0014284  27.998   0.635   4.359 -0.2972  0.3300 -0.2108
 1588UNK    C0114285  28.084   0.647   4.261  0.3943 -0.3750 -0.2601
 1588UNK    H0214286  28.176   0.591   4.279  0.7673  0.2608 -0.1391
 1588UNK    C0314287  28.069   0.740   4.168 -0.4779  0.3006 -1.0031
 1588UNK    C0414288  28.155   0.747   4.050 -1.0083  0.3572  0.3405
 1588UNK    F0514289  28.287   0.743   4.086  0.7085  0.1871 -0.3899
 1588UNK    F0614290  28.116   0.645   3.970  0.0701 -0.3089  0.7882
 1588UNK    F0714291  28.133   0.862   3.985  0.5001 -0.2425  0.0818
 1588UNK    H0814292  27.997   0.819   4.182 -1.1937 -0.8168  1.9902
 1589UNK    F0014293  28.128   0.221   7.744 -0.1955  0.7985  0.4421
 1589UNK    C0114294  28.222   0.295   7.690 -0.6251 -0.4430 -0.0888
 1589UNK    H0214295  28.307   0.318   7.754 -0.2903 -0.9317 -0.3507
 1589UNK    C0314296  28.220   0.317   7.560 -0.0315  0.9153  0.2512
 1589UNK    C0414297  28.342   0.366   7.487 -0.1739  0.2820 -0.3404
 1589UNK    F0514298  28.327   0.442   7.376 -0.7769 -0.1232 -0.5186
 1589UNK    F0614299  28.419   0.442   7.568  0.5617  0.4705  0.4023
 1589UNK    F0714300  28.413   0.253   7.450 -0.3644  0.1724 -0.2389
 1589UNK    H0814301  28.162   0.257   7.492  1.2618 -0.1292  0.0430
 1590UNK    F0014302  27.898   4.901   4.729 -0.5333 -0.3819 -0.2621
 1590UNK    C0114303  28.000   4.837   4.666 -0.5398  1.2763 -0.0952
 1590UNK    H0214304  27.957   4.773   4.590 -0.6865 -0.2990  1.3006
 1590UNK    C0314305  28.113   4.831   4.733  0.5083  0.8859 -0.4800
 1590UNK    C0414306  28.174   4.946   4.799 -0.0112 -0.1151 -0.2765
 1590UNK    F0514307  28.133   5.059   4.736 -0.5862  0.0662  0.3920
 1590UNK    F0614308  28.141   4.962   4.933 -0.2629  0.0235  0.3797
 1590UNK    F0714309  28.306   4.940   4.795 -0.2765 -0.6073  0.1704
 1590UNK    H0814310  28.141   4.735   4.776 -1.7579  0.0927 -0.7357
 1591UNK    F0014311  28.575   4.538   7.491 -0.8257  0.0995  0.1447
 1591UNK    C0114312  28.699   4.561   7.454  0.4642 -0.8099 -0.1445
 1591UNK    H0214313  28.749   4.467   7.429 -0.3449 -1.4725  0.6934
 1591UNK    C0314314  28.739   4.684   7.452 -0.8111  0.1566  0.2312
 1591UNK    C0414315  28.849   4.731   7.363 -0.2405 -0.1027 -0.3759
 1591UNK    F0514316  28.827   4.706   7.228 -0.6256  0.0494  0.5721
 1591UNK    F0614317  28.851   4.866   7.377 -0.4411  0.6705  0.9186
 1591UNK    F0714318  28.970   4.676   7.401  0.1471  0.2732 -0.1069
 1591UNK    H0814319  28.675   4.763   7.488  0.0822  0.4396  1.1991
 1592UNK    F0014320  29.366   1.574   7.107  0.0557  0.0963 -0.4183
 1592UNK    C0114321  29.362   1.447   7.158 -0.7844  0.2024  0.4378
 1592UNK    H0214322  29.271   1.392   7.135  0.1151  0.1817 -3.4324
 1592UNK    C0314323  29.464   1.401   7.236 -0.3932 -0.1975 -0.1101
 1592UNK    C0414324  29.471   1.262   7.274  0.0070  0.0816  0.0185
 1592UNK    F0514325  29.536   1.243   7.392  0.0029  0.5651  0.3800
 1592UNK    F0614326  29.354   1.191   7.279  0.0608  0.3954  0.3603
 1592UNK    F0714327  29.533   1.194   7.174  0.1153 -0.0635  0.1199
 1592UNK    H0814328  29.561   1.449   7.229 -1.1235  1.4075  0.5647
 1593UNK    F0014329  28.552   3.322   5.637  0.8945  0.4762 -0.2256
 1593UNK    C0114330  28.551   3.377   5.518 -0.1053 -0.0808  0.0590
 1593UNK    H0214331  28.473   3.452   5.505 -1.2258 -1.2430 -0.0196
 1593UNK    C0314332  28.652   3.363   5.434  0.3731  0.7993 -0.7831
 1593UNK    C0414333  28.676   3.242   5.352  0.4008  0.1285  0.2939
 1593UNK    F0514334  28.794   3.245   5.296 -0.3554  0.2406  0.2677
 1593UNK    F0614335  28.676   3.127   5.422  0.3269  0.1469 -0.2119
 1593UNK    F0714336  28.577   3.232   5.262  0.2860 -0.2245  0.2630
 1593UNK    H0814337  28.719   3.446   5.418 -0.7828  1.8288 -0.3304
 1594UNK    F0014338  38.615   5.008   6.723  0.1287 -0.3937 -0.1167
 1594UNK    C0114339  38.704   5.025   6.827  1.1967 -0.2388  0.7441
 1594UNK    H0214340  38.790   5.081   6.790 -0.1989  0.8381 -0.9598
 1594UNK    C0314341  38.669   4.997   6.948 -0.4415 -0.5432 -0.8258
 1594UNK    C0414342  38.744   5.041   7.072 -0.0382 -0.2063  0.0450
 1594UNK    F0514343  38.764   5.175   7.076  0.2872  0.1411 -0.2271
 1594UNK    F0614344  38.677   5.009   7.185 -0.0115  0.3476 -0.0610
 1594UNK    F0714345  38.872   4.987   7.071  0.1059 -0.3281 -0.1553
 1594UNK    H0814346  38.564   4.974   6.964 -0.3664  0.4469  1.2027
 1595UNK    F0014347  30.435   0.507   8.157 -0.5970  0.0347  0.1270
 1595UNK    C0114348  30.434   0.549   8.289  0.1704 -0.6981 -0.2950
 1595UNK    H0214349  30.531   0.536   8.337  0.6671 -0.0950 -1.1073
 1595UNK    C0314350  30.318   0.596   8.327  0.1702 -0.4123 -0.1657
 1595UNK    C0414351  30.210   0.513   8.366  0.5755 -0.1316  0.8371
 1595UNK    F0514352  30.171   0.447   8.259  0.0733  0.5949 -0.0455
 1595UNK    F0614353  30.251   0.433   8.470 -0.1654 -0.1890 -0.0420
 1595UNK    F0714354  30.097   0.586   8.402  0.0277  0.0145  0.1298
 1595UNK    H0814355  30.289   0.699   8.309  1.5754 -0.1341 -0.9263
 1596UNK    F0014356  28.939   4.373   7.253 -0.1858 -0.1360  0.1109
 1596UNK    C0114357  29.022   4.357   7.357  0.6158 -0.2466  0.2324
 1596UNK    H0214358  29.079   4.447   7.378  1.8075 -0.8651 -0.3101
 1596UNK    C0314359  28.994   4.248   7.428  0.4314 -0.2110  0.0518
 1596UNK    C0414360  29.047   4.226   7.563  0.4724 -0.5355  0.1805
 1596UNK    F0514361  29.166   4.280   7.574 -0.0283 -0.5256  0.2147
 1596UNK    F0614362  28.965   4.274   7.670 -0.0551 -0.0664 -0.3694
 1596UNK    F0714363  29.059   4.096   7.594 -0.4457  0.0209  0.1384
 1596UNK    H0814364  28.953   4.159   7.382  3.1954 -0.9606 -1.0751
 1597UNK    F0014365  29.489   1.156   8.207  0.0963  0.3718 -0.1692
 1597UNK    C0114366  29.550   1.261   8.145 -0.1943 -0.4421 -0.4402
 1597UNK    H0214367  29.623   1.239   8.067 -0.3174  3.3627 -1.7419
 1597UNK    C0314368  29.498   1.384   8.167 -0.2220  0.0961 -0.2980
 1597UNK    C0414369  29.545   1.485   8.269  0.0217  0.0902  0.4706
 1597UNK    F0514370  29.475   1.600   8.270  0.0212  0.5246  0.2769
 1597UNK    F0614371  29.540   1.453   8.400 -0.3046  0.0593  0.0037
 1597UNK    F0714372  29.673   1.508   8.238 -0.3663  0.4619  0.0831
 1597UNK    H0814373  29.419   1.415   8.100  0.5396 -0.2721 -1.3794
 1598UNK    F0014374  27.195   0.779   0.848 -0.4486  0.1739  0.2691
 1598UNK    C0114375  27.322   0.805   0.818  0.2311 -0.1371 -0.0865
 1598UNK    H0214376  27.370   0.712   0.785 -1.3553 -1.0492  0.1429
 1598UNK    C0314377  27.355   0.930   0.800 -0.0101  0.0333 -0.4456
 1598UNK    C0414378  27.480   0.977   0.731  0.9448  0.1849 -0.0863
 1598UNK    F0514379  27.584   0.896   0.761 -0.2489 -0.2423  0.3819
 1598UNK    F0614380  27.450   0.987   0.603 -0.0424  0.1827 -0.1995
 1598UNK    F0714381  27.518   1.103   0.767 -0.1374  0.1544  0.1163
 1598UNK    H0814382  27.296   1.004   0.852 -0.7545 -0.5205 -0.5033
 1599UNK    F0014383  29.675   3.242   8.552 -0.7881 -0.4529  0.0477
 1599UNK    C0114384  29.638   3.302   8.440  0.8646 -0.0136  0.0130
 1599UNK    H0214385  29.532   3.325   8.452 -0.0979 -2.5290 -2.8660
 1599UNK    C0314386  29.725   3.376   8.375 -0.5176  0.0223  0.4325
 1599UNK    C0414387  29.835   3.454   8.438  0.2492  0.1416  0.1996
 1599UNK    F0514388  29.796   3.565   8.506 -0.0425  0.1921  0.3613
 1599UNK    F0614389  29.912   3.381   8.523 -0.4812  0.2352 -0.4901
 1599UNK    F0714390  29.918   3.489   8.336 -0.2001 -0.3924 -0.6016
 1599UNK    H0814391  29.706   3.397   8.271  1.5029 -0.3139 -0.0192
 1600UNK    F0014392  35.934   4.133   8.898  0.1997 -0.8904 -0.0845
 1600UNK    C0114393  35.814   4.113   8.835  0.1574 -0.2888  0.0544
 1600UNK    H0214394  35.728   4.171   8.866  1.6178  2.1388 -0.3299
 1600UNK    C0314395  35.819   4.034   8.731 -0.0266  0.1581 -0.0853
 1600UNK    C0414396  35.697   4.004   8.657 -0.1622 -0.7048 -0.2778
 1600UNK    F0514397  35.718   3.899   8.575  0.8025 -0.3489 -0.1334
 1600UNK    F0614398  35.606   3.958   8.747 -0.3039 -0.1757  0.4050
 1600UNK    F0714399  35.642   4.115   8.596  0.4652 -0.6784  0.0747
 1600UNK    H0814400  35.909   3.976   8.714 -0.9420 -0.9806 -1.1385
 1601UNK    F0014401  29.178   2.600   4.264 -0.5718  0.2940  0.1708
 1601UNK    C0114402  29.104   2.683   4.344 -1.0734  0.7616  0.4937
 1601UNK    H0214403  29.152   2.679   4.441 -2.0912 -0.4401  0.9549
 1601UNK    C0314404  29.048   2.793   4.289 -0.0239 -0.0096  0.1626
 1601UNK    C0414405  29.012   2.910   4.368 -0.1518  0.0991  0.3742
 1601UNK    F0514406  29.119   2.953   4.435 -0.3014 -0.2317  0.4624
 1601UNK    F0614407  28.984   3.015   4.293 -0.0016  0.9642  0.3241
 1601UNK    F0714408  28.909   2.887   4.452 -0.3374 -0.6145  0.0406
 1601UNK    H0814409  29.044   2.813   4.183 -0.2314  2.1100  0.5422
 1602UNK    F0014410  30.156   3.396   7.031  0.3797 -0.0199 -0.5450
 1602UNK    C0114411  30.094   3.302   6.960  0.1924  0.9679 -0.2067
 1602UNK    H0214412  30.157   3.257   6.883  0.6307 -0.8504  1.1761
 1602UNK    C0314413  29.957   3.302   6.948  0.4187 -0.2745  0.1968
 1602UNK    C0414414  29.870   3.190   6.919  0.1874  0.2969 -0.0326
 1602UNK    F0514415  29.856   3.117   7.037  0.4761  0.1106 -0.4027
 1602UNK    F0614416  29.743   3.231   6.876  0.1383  0.0780  0.2124
 1602UNK    F0714417  29.913   3.118   6.811  0.3214 -0.8252 -0.7683
 1602UNK    H0814418  29.902   3.383   6.994 -2.0889 -2.2408  0.8168
 1603UNK    F0014419  29.140   3.566   6.930  0.2462 -0.7093 -0.0811
 1603UNK    C0114420  29.190   3.651   7.017 -0.2443  0.2282 -0.2131
 1603UNK    H0214421  29.252   3.605   7.094 -0.2616  1.5689  0.6113
 1603UNK    C0314422  29.180   3.782   6.993 -0.0450  0.0242  0.1240
 1603UNK    C0414423  29.263   3.885   7.063  0.8597  0.4188 -0.3701
 1603UNK    F0514424  29.397   3.875   7.046 -0.1966  0.4186 -0.4547
 1603UNK    F0614425  29.225   4.010   7.015 -0.3247 -0.3984 -0.0559
 1603UNK    F0714426  29.239   3.898   7.196 -0.0661 -0.1119 -0.0234
 1603UNK    H0814427  29.144   3.815   6.897 -0.7756  1.8020  0.9845
 1604UNK    F0014428  28.750   3.717   7.935  0.2570  0.0582  0.3395
 1604UNK    C0114429  28.856   3.789   7.945  0.4414  0.2607 -0.5054
 1604UNK    H0214430  28.912   3.758   7.857  0.6223 -0.0063 -0.2960
 1604UNK    C0314431  28.850   3.906   8.010  0.3083  0.2252 -0.7008
 1604UNK    C0414432  28.753   4.012   7.992 -0.5588  0.4853  0.6413
 1604UNK    F0514433  28.629   3.971   8.023 -0.0531 -0.0605  0.1713
 1604UNK    F0614434  28.772   4.114   8.077 -0.0337  0.2722  0.1494
 1604UNK    F0714435  28.759   4.067   7.864  0.4626  0.0655  0.2909
 1604UNK    H0814436  28.924   3.932   8.085 -1.4589 -2.3233  2.0539
 1605UNK    F0014437  29.707   2.913   6.091 -0.0001  0.1432  0.1551
 1605UNK    C0114438  29.812   2.877   6.015  0.3390  0.1358 -0.0827
 1605UNK    H0214439  29.795   2.923   5.917  2.2398  0.3426 -0.3272
 1605UNK    C0314440  29.879   2.761   6.038  0.9205  0.3581  0.0040
 1605UNK    C0414441  30.012   2.730   6.006  0.6490  0.7978  0.8335
 1605UNK    F0514442  30.064   2.765   5.884 -0.2662 -0.6164  0.0972
 1605UNK    F0614443  30.089   2.791   6.097  0.1248 -0.5662  0.6637
 1605UNK    F0714444  30.019   2.599   6.023 -0.1013 -0.0223  0.1812
 1605UNK    H0814445  29.817   2.673   6.048  2.9063 -0.8814  1.7147
 1606UNK    F0014446  29.547   2.162   7.073 -0.0104  0.4096 -0.7102
 1606UNK    C0114447  29.553   2.185   7.201  0.3589 -0.3233  0.1589
 1606UNK    H0214448  29.598   2.103   7.258  0.0068  1.7486  3.5396
 1606UNK    C0314449  29.479   2.284   7.247 -0.1813 -1.3112 -0.9612
 1606UNK    C0414450  29.341   2.269   7.292  0.2711 -0.1890  0.3086
 1606UNK    F0514451  29.283   2.389   7.288  0.0995  0.0879  0.0788
 1606UNK    F0614452  29.271   2.187   7.211 -0.4756  0.3806 -0.2442
 1606UNK    F0714453  29.331   2.211   7.415  0.3927 -0.4439  0.2494
 1606UNK    H0814454  29.518   2.376   7.288 -3.9969 -0.1597  0.2763
 1607UNK    F0014455  29.895   3.345   7.237  0.2172  0.2028  0.4261
 1607UNK    C0114456  29.931   3.445   7.316 -1.2670  0.3969  0.0610
 1607UNK    H0214457  29.852   3.465   7.388 -1.7310  0.2597 -0.4069
 1607UNK    C0314458  30.008   3.541   7.266 -0.3370 -0.2876 -0.2305
 1607UNK    C0414459  30.068   3.647   7.343  0.2824  0.0199  0.7475
 1607UNK    F0514460  30.079   3.759   7.268 -0.2577 -0.3652 -0.3259
 1607UNK    F0614461  29.993   3.668   7.455  0.4513  0.1958 -0.2193
 1607UNK    F0714462  30.188   3.628   7.399 -0.2314 -0.4570 -0.5724
 1607UNK    H0814463  30.041   3.538   7.163 -0.0593  0.9584 -0.1872
 1608UNK    F0014464  29.916   4.644   7.054  0.5457 -0.8388 -0.6560
 1608UNK    C0114465  29.898   4.575   6.943  0.1856  0.0174 -0.2617
 1608UNK    H0214466  29.959   4.615   6.862  0.3843  0.0747 -0.0847
 1608UNK    C0314467  29.791   4.501   6.929  0.5068  0.1855  0.2619
 1608UNK    C0414468  29.730   4.410   7.034  0.7985  0.4325  0.3859
 1608UNK    F0514469  29.641   4.314   6.999  0.1503  0.3493 -0.1089
 1608UNK    F0614470  29.830   4.347   7.091 -0.1384 -0.1497 -0.1873
 1608UNK    F0714471  29.673   4.492   7.130 -0.0882 -0.0113 -0.3656
 1608UNK    H0814472  29.729   4.533   6.847  0.4065 -0.3320  0.1326
 1609UNK    F0014473  28.454   1.537   8.533 -0.1662 -0.5419 -0.4478
 1609UNK    C0114474  28.320   1.554   8.518 -0.1589 -0.2850 -0.2257
 1609UNK    H0214475  28.268   1.596   8.603  0.4895 -1.4384  0.7556
 1609UNK    C0314476  28.278   1.532   8.395 -0.3329 -0.1808 -0.3431
 1609UNK    C0414477  28.150   1.565   8.345 -0.0778  0.6635 -0.7365
 1609UNK    F0514478  28.060   1.533   8.440  0.1532  0.0169 -0.5206
 1609UNK    F0614479  28.145   1.702   8.336 -0.2360 -0.4516 -0.1412
 1609UNK    F0714480  28.108   1.514   8.226  0.2623 -0.2789  1.0894
 1609UNK    H0814481  28.351   1.522   8.316  2.1418 -1.5131  2.0492
 1610UNK    F0014482  26.774   1.175   8.802 -0.2643 -0.1118  0.2399
 1610UNK    C0114483  26.753   1.114   8.679  0.5472  0.5410  0.6304
 1610UNK    H0214484  26.835   1.055   8.638 -0.8146 -0.1365 -1.2141
 1610UNK    C0314485  26.638   1.135   8.615  0.1912  0.8079  0.2410
 1610UNK    C0414486  26.615   1.063   8.488  0.7924  0.1630  0.3091
 1610UNK    F0514487  26.588   0.932   8.504 -0.2811  0.2227 -0.1502
 1610UNK    F0614488  26.505   1.098   8.423 -0.0346  0.4591 -0.5294
 1610UNK    F0714489  26.717   1.075   8.399 -0.5047 -0.1788  0.4160
 1610UNK    H0814490  26.550   1.175   8.664 -0.5106 -0.3986 -0.0115
 1611UNK    F0014491  28.827   0.677   6.177  0.1238 -0.0586  0.6062
 1611UNK    C0114492  28.923   0.595   6.126  0.2935  0.7282 -0.0941
 1611UNK    H0214493  29.004   0.661   6.094 -0.7012  1.5608 -0.9796
 1611UNK    C0314494  28.889   0.473   6.076  0.3139  0.4169 -0.0757
 1611UNK    C0414495  28.987   0.363   6.056 -0.2334 -0.5692 -0.2037
 1611UNK    F0514496  29.018   0.310   6.173 -0.1904 -0.1509 -0.6589
 1611UNK    F0614497  28.946   0.264   5.965 -0.3351  0.1423  0.2393
 1611UNK    F0714498  29.099   0.408   6.005  0.3235  0.0437 -0.2178
 1611UNK    H0814499  28.796   0.455   6.024  0.7909  0.4818 -0.9535
 1612UNK    F0014500  28.847   1.442  11.149  0.1157 -0.7810 -0.3585
 1612UNK    C0114501  28.804   1.542  11.229 -0.0135 -0.1228  0.7719
 1612UNK    H0214502  28.765   1.503  11.324 -0.1541 -1.1621  0.2979
 1612UNK    C0314503  28.828   1.678  11.206 -0.0120  0.7782 -0.2163
 1612UNK    C0414504  28.815   1.768  11.322  0.4337  0.7534 -0.0977
 1612UNK    F0514505  28.719   1.729  11.408 -0.0110 -0.2463  0.5709
 1612UNK    F0614506  28.927   1.766  11.394 -0.4535  0.5659 -0.3894
 1612UNK    F0714507  28.792   1.894  11.283 -0.7263  0.8295 -0.0383
 1612UNK    H0814508  28.851   1.726  11.112 -0.2459 -0.9322 -1.1729
 1613UNK    F0014509  28.292   0.044   9.068  0.1845  0.3444  0.3284
 1613UNK    C0114510  28.185   0.035   8.986  0.4317  0.0722 -0.5031
 1613UNK    H0214511  28.123  -0.046   9.024  0.9964 -2.1836 -4.1381
 1613UNK    C0314512  28.200   0.075   8.863  0.5094 -0.5121  0.2154
 1613UNK    C0414513  28.095   0.106   8.761 -0.5083  0.2812  0.7586
 1613UNK    F0514514  28.011   0.201   8.801  0.2563  0.0266 -0.5834
 1613UNK    F0614515  28.154   0.154   8.649  0.2378  0.4096 -0.0325
 1613UNK    F0714516  28.036  -0.010   8.721  0.0294  0.2248  0.5280
 1613UNK    H0814517  28.289   0.046   8.811  0.6176 -2.2740  1.3347
 1614UNK    F0014518  27.798   4.209   7.341  0.2626  0.3125 -0.1529
 1614UNK    C0114519  27.835   4.256   7.226  0.0263  0.0260  0.6999
 1614UNK    H0214520  27.815   4.191   7.141 -2.6262  0.1946  1.1481
 1614UNK    C0314521  27.856   4.383   7.215 -0.4726 -0.3135 -0.1569
 1614UNK    C0414522  27.982   4.442   7.271  0.7759  0.0823  0.2370
 1614UNK    F0514523  27.999   4.390   7.392  0.3422 -0.0075  0.1778
 1614UNK    F0614524  28.090   4.393   7.195  0.1266  0.3568 -0.6510
 1614UNK    F0714525  27.992   4.574   7.282 -0.5557  0.0223  0.2472
 1614UNK    H0814526  27.774   4.454   7.219  0.9797  1.3824  0.5705
 1615UNK    F0014527  27.262   2.280   4.524 -0.2440  0.1391  0.2389
 1615UNK    C0114528  27.263   2.320   4.650  0.5983  0.4444  0.6669
 1615UNK    H0214529  27.231   2.425   4.655  2.9076  1.2602 -0.9047
 1615UNK    C0314530  27.264   2.222   4.742 -0.0308 -0.1579 -0.1303
 1615UNK    C0414531  27.213   2.240   4.878 -0.4966  0.8589 -0.2862
 1615UNK    F0514532  27.080   2.221   4.884 -0.2784 -0.0895  0.2644
 1615UNK    F0614533  27.272   2.135   4.947 -0.4829 -0.4660 -0.1555
 1615UNK    F0714534  27.235   2.356   4.943 -0.0093 -0.2195  0.0659
 1615UNK    H0814535  27.265   2.119   4.710 -2.2386 -0.0864 -0.5355
 1616UNK    F0014536  30.034   2.714   8.491 -0.4169  0.4776  0.3413
 1616UNK    C0114537  29.996   2.773   8.373  0.2904 -0.7839  0.2703
 1616UNK    H0214538  29.971   2.697   8.299  1.6071  0.4973 -1.5366
 1616UNK    C0314539  30.020   2.906   8.348 -0.7198 -0.1280  0.0220
 1616UNK    C0414540  29.966   2.980   8.236 -0.8005 -0.2362 -0.3589
 1616UNK    F0514541  29.973   2.922   8.116  0.2184  0.0993 -0.3344
 1616UNK    F0614542  29.832   2.985   8.244 -0.3879  0.0344  0.1429
 1616UNK    F0714543  30.009   3.109   8.229  0.0103 -0.1834 -0.0935
 1616UNK    H0814544  30.037   2.975   8.429  1.0938  0.9671 -1.2594
 1617UNK    F0014545  28.467   4.712   5.589 -0.1898  0.2917  0.2735
 1617UNK    C0114546  28.429   4.785   5.695 -0.3526 -0.1900  0.0830
 1617UNK    H0214547  28.452   4.887   5.664  1.9856 -0.8409 -0.4084
 1617UNK    C0314548  28.362   4.742   5.801  0.1950 -0.1335  0.5305
 1617UNK    C0414549  28.224   4.696   5.799 -0.0237 -0.6402 -0.2859
 1617UNK    F0514550  28.204   4.565   5.775  0.1200 -0.2574 -0.1043
 1617UNK    F0614551  28.165   4.725   5.916 -0.4857  0.5416  0.3676
 1617UNK    F0714552  28.142   4.776   5.720  0.0412  0.0218 -0.5071
 1617UNK    H0814553  28.402   4.764   5.899  0.0616  0.1170  0.5296
 1618UNK    F0014554  35.709   0.087  14.262 -0.0790  0.6355  0.0292
 1618UNK    C0114555  35.715   0.074  14.396 -0.0626  0.4091  0.2114
 1618UNK    H0214556  35.818   0.065  14.430 -0.6450  1.2219  2.2835
 1618UNK    C0314557  35.603   0.051  14.465  1.2021  0.1284  0.9975
 1618UNK    C0414558  35.597   0.083  14.608 -0.5820  0.1181 -0.2735
 1618UNK    F0514559  35.725   0.065  14.663 -0.2049  0.2060  0.1581
 1618UNK    F0614560  35.557   0.211  14.618 -0.4697 -0.1902  0.1801
 1618UNK    F0714561  35.512   0.001  14.679 -0.3100 -0.1348  0.1420
 1618UNK    H0814562  35.507   0.032  14.418  1.6758 -0.0377  0.0767
 1619UNK    F0014563  26.921   3.223   6.514  0.4985  0.0855 -0.2717
 1619UNK    C0114564  26.865   3.340   6.502  0.3107  0.0111  0.0290
 1619UNK    H0214565  26.802   3.379   6.582  0.4286  2.5805 -1.0893
 1619UNK    C0314566  26.907   3.409   6.396 -0.4801  0.0183 -0.1173
 1619UNK    C0414567  26.869   3.550   6.364  0.3611 -0.2513 -0.8532
 1619UNK    F0514568  26.930   3.579   6.251  1.0712 -0.0300 -0.2847
 1619UNK    F0614569  26.738   3.571   6.355  0.7564  0.2583  0.1778
 1619UNK    F0714570  26.894   3.651   6.449  0.2749  0.2933  0.4109
 1619UNK    H0814571  26.908   3.346   6.309 -0.9309  0.1053 -0.1881
 1620UNK    F0014572  29.358   5.130   5.993  0.1890 -0.2367 -0.6406
 1620UNK    C0114573  29.447   5.159   5.900  0.4671  0.1353  0.0505
 1620UNK    H0214574  29.537   5.201   5.946  1.2624  0.1995 -1.5292
 1620UNK    C0314575  29.414   5.182   5.773  0.5474 -0.2383 -0.3130
 1620UNK    C0414576  29.375   5.312   5.720  0.1243 -0.1171  0.3046
 1620UNK    F0514577  29.295   5.282   5.616 -0.2087 -0.0869 -0.0030
 1620UNK    F0614578  29.308   5.393   5.809 -0.4067 -0.4373 -0.3731
 1620UNK    F0714579  29.481   5.376   5.673 -0.0662  0.3772 -0.0886
 1620UNK    H0814580  29.452   5.115   5.697  1.1242 -0.6813  0.3614
 1621UNK    F0014581  29.263   5.157   9.088  0.6373 -0.3321 -0.1513
 1621UNK    C0114582  29.190   5.245   9.162 -0.0256  0.1945 -0.1108
 1621UNK    H0214583  29.097   5.194   9.187  0.2251 -0.6461 -0.8621
 1621UNK    C0314584  29.212   5.373   9.142 -0.9873 -0.9945 -0.0788
 1621UNK    C0414585  29.164   5.483   9.229 -0.1709  0.3504  0.7765
 1621UNK    F0514586  29.225   5.510   9.344 -0.3293  0.3933  0.1469
 1621UNK    F0614587  29.160   5.592   9.150 -0.1810  0.2272  0.1060
 1621UNK    F0714588  29.034   5.462   9.270 -0.1870  0.0252 -0.0043
 1621UNK    H0814589  29.247   5.416   9.048 -3.1865 -1.8039 -1.2923
 1622UNK    F0014590  28.604   2.669   6.499  0.5392  0.1429 -0.0906
 1622UNK    C0114591  28.732   2.650   6.525  0.3846 -0.8892  0.1916
 1622UNK    H0214592  28.789   2.726   6.472  0.9216 -1.2412  0.2607
 1622UNK    C0314593  28.772   2.537   6.580  0.2254  0.2493 -0.8230
 1622UNK    C0414594  28.909   2.489   6.555  0.7187  0.2355  0.4924
 1622UNK    F0514595  28.920   2.498   6.423 -0.0940 -0.1303  0.2392
 1622UNK    F0614596  29.004   2.551   6.621 -0.6379  0.0815  0.3217
 1622UNK    F0714597  28.921   2.361   6.605 -0.1941  0.3259  0.6632
 1622UNK    H0814598  28.764   2.529   6.687  1.4556  1.4787 -0.6175
 1623UNK    F0014599  29.067   3.105   8.127  0.1538 -0.3257  0.0771
 1623UNK    C0114600  29.030   2.974   8.148 -0.0667 -0.3250  0.3553
 1623UNK    H0214601  28.977   2.954   8.241 -3.1854  0.2380 -1.2350
 1623UNK    C0314602  29.088   2.886   8.065  0.3173  0.5493  0.1585
 1623UNK    C0414603  29.044   2.751   8.049  0.3632 -0.1365 -0.0351
 1623UNK    F0514604  28.967   2.709   8.155  0.0741  0.9710  0.0371
 1623UNK    F0614605  28.973   2.727   7.936  0.4150  0.5579  0.0643
 1623UNK    F0714606  29.149   2.667   8.028  0.2457 -0.9073 -0.6206
 1623UNK    H0814607  29.193   2.884   8.044  0.4107 -3.4185  0.5858
 1624UNK    F0014608  29.907   0.151   6.355  0.0819  0.1102 -0.3319
 1624UNK    C0114609  30.009   0.084   6.412 -0.4741  0.3486  0.5832
 1624UNK    H0214610  30.034   0.130   6.508  0.3184 -0.5213  0.7996
 1624UNK    C0314611  30.087   0.017   6.333 -0.9625 -0.1481 -0.1279
 1624UNK    C0414612  30.195  -0.064   6.390 -0.1377 -0.2072 -0.9659
 1624UNK    F0514613  30.278  -0.109   6.296  0.1461 -0.0005  0.2567
 1624UNK    F0614614  30.272   0.007   6.472  0.0382 -0.3810  0.1162
 1624UNK    F0714615  30.139  -0.176   6.445 -0.0476  0.4489  0.3935
 1624UNK    H0814616  30.117   0.054   6.236  0.4277 -0.9338 -0.0077
 1625UNK    F0014617  36.170   3.654  13.624  0.2119 -0.0449 -0.3159
 1625UNK    C0114618  36.194   3.602  13.500 -0.1990  0.1759  0.5072
 1625UNK    H0214619  36.116   3.637  13.433 -0.1861  0.3140  0.5623
 1625UNK    C0314620  36.313   3.553  13.477  0.8641  0.0369  0.5043
 1625UNK    C0414621  36.341   3.510  13.339 -0.3816  0.0201 -0.2506
 1625UNK    F0514622  36.432   3.412  13.323  0.4136 -0.1747 -0.4593
 1625UNK    F0614623  36.229   3.466  13.272  0.5354 -0.3435 -0.7828
 1625UNK    F0714624  36.373   3.610  13.260  0.2412  0.4531  0.0198
 1625UNK    H0814625  36.395   3.557  13.547  0.8039 -1.6099  0.6805
 1626UNK    F0014626  30.329   3.066   6.698 -0.0013 -0.2062 -0.2996
 1626UNK    C0114627  30.321   2.934   6.707  0.0818 -0.4318  0.1328
 1626UNK    H0214628  30.388   2.879   6.641  0.0032 -0.7825  0.3472
 1626UNK    C0314629  30.277   2.892   6.825  0.1565 -0.1603  0.1713
 1626UNK    C0414630  30.315   2.759   6.870  0.1267  0.6444  0.0595
 1626UNK    F0514631  30.290   2.662   6.776 -0.0058 -0.1390  0.1170
 1626UNK    F0614632  30.446   2.765   6.906 -0.0066 -0.3297 -0.0228
 1626UNK    F0714633  30.241   2.729   6.979 -0.5607 -0.0928 -0.8658
 1626UNK    H0814634  30.275   2.961   6.908 -1.4417  1.7125 -1.3693
 1627UNK    F0014635  29.381   4.013   6.758 -0.2166 -0.5703  0.2491
 1627UNK    C0114636  29.336   4.111   6.673  0.3668 -0.0217 -0.1583
 1627UNK    H0214637  29.320   4.212   6.712 -0.0731  0.0985 -0.6422
 1627UNK    C0314638  29.278   4.076   6.558 -0.3899 -0.0850 -0.0655
 1627UNK    C0414639  29.134   4.038   6.546 -0.1569  0.4238  0.5873
 1627UNK    F0514640  29.050   4.140   6.554 -0.1084 -0.1654 -0.0249
 1627UNK    F0614641  29.109   3.983   6.428 -0.4599 -0.0979  0.2663
 1627UNK    F0714642  29.092   3.954   6.646  0.3546 -0.3349 -0.0809
 1627UNK    H0814643  29.350   4.045   6.484  0.0236  2.4618 -0.7706
 1628UNK    F0014644  29.813   1.140   8.152  0.2649  0.2271 -0.5930
 1628UNK    C0114645  29.809   1.011   8.192  0.2691  0.1068 -0.5550
 1628UNK    H0214646  29.740   0.993   8.275 -0.6620 -0.6832 -1.4817
 1628UNK    C0314647  29.895   0.917   8.154  0.2951 -0.1003 -0.0636
 1628UNK    C0414648  29.885   0.773   8.182  0.2224  1.0196 -0.1691
 1628UNK    F0514649  29.996   0.702   8.146  0.4305  0.1430  0.2676
 1628UNK    F0614650  29.853   0.748   8.314 -0.6266  0.4653  0.2802
 1628UNK    F0714651  29.782   0.708   8.119 -0.2895  0.3442  0.1052
 1628UNK    H0814652  29.968   0.939   8.078 -0.1596  1.0314 -0.1860
 1629UNK    F0014653  29.923   1.544   8.462  0.0017 -0.2232  0.4078
 1629UNK    C0114654  29.931   1.409   8.449 -0.1338  0.4657  0.2222
 1629UNK    H0214655  29.902   1.351   8.537 -1.4171  0.2852 -0.3078
 1629UNK    C0314656  29.963   1.364   8.333 -0.4225  0.7030 -0.1952
 1629UNK    C0414657  30.103   1.343   8.298 -0.7507  0.3257  0.0015
 1629UNK    F0514658  30.119   1.333   8.168 -0.6507 -0.1016  1.0202
 1629UNK    F0614659  30.175   1.446   8.340  0.4538  0.0987 -0.0563
 1629UNK    F0714660  30.161   1.240   8.367 -0.0483  0.0710 -0.8162
 1629UNK    H0814661  29.902   1.395   8.249 -1.6272 -0.6728  0.1561
 1630UNK    F0014662  30.173   4.922   7.545  0.8345  0.3839  0.2002
 1630UNK    C0114663  30.124   4.800   7.543  0.2649  0.8994 -0.1957
 1630UNK    H0214664  30.203   4.725   7.548  1.7395  2.4109 -0.5352
 1630UNK    C0314665  29.999   4.791   7.601  0.2941  0.6349  0.7047
 1630UNK    C0414666  29.975   4.682   7.700 -0.4943  0.0592 -0.4813
 1630UNK    F0514667  29.995   4.561   7.645  0.2227 -0.1345  0.1155
 1630UNK    F0614668  30.060   4.682   7.807 -0.5613  0.3914  0.0727
 1630UNK    F0714669  29.853   4.687   7.739  0.2142  0.1184 -0.4569
 1630UNK    H0814670  29.915   4.846   7.562  0.5675  0.5871  0.0600
 1631UNK    F0014671  29.349   1.198   5.233  0.5659 -0.0401 -0.0183
 1631UNK    C0114672  29.321   1.075   5.190  0.1415  0.2304  0.1078
 1631UNK    H0214673  29.346   1.058   5.086  1.8604  1.2344  0.3430
 1631UNK    C0314674  29.247   0.987   5.265  0.2910 -0.0706 -0.2734
 1631UNK    C0414675  29.102   0.998   5.242  0.2908 -0.3434  0.6380
 1631UNK    F0514676  29.066   1.112   5.190  0.0124 -0.1909  0.3515
 1631UNK    F0614677  29.057   0.905   5.157  0.0201 -0.1295  0.0702
 1631UNK    F0714678  29.026   0.978   5.354  0.4276 -0.3430 -0.3718
 1631UNK    H0814679  29.269   0.980   5.371 -0.6008  0.8673 -0.0142
 1632UNK    F0014680  28.582   2.360   7.831  0.2532  0.0071 -0.0581
 1632UNK    C0114681  28.695   2.358   7.901 -0.3461  0.0573  0.3305
 1632UNK    H0214682  28.759   2.270   7.888  1.5245  1.4794 -0.4437
 1632UNK    C0314683  28.721   2.466   7.974 -0.3951 -0.3240 -0.0867
 1632UNK    C0414684  28.705   2.470   8.119  0.3364 -0.0578 -0.1333
 1632UNK    F0514685  28.819   2.422   8.175  0.2342  0.0887  0.1650
 1632UNK    F0614686  28.682   2.599   8.156  0.0352 -0.0731 -0.1346
 1632UNK    F0714687  28.599   2.384   8.153  0.4578 -0.5611 -0.0054
 1632UNK    H0814688  28.767   2.551   7.927 -1.5020  0.7279  0.7105
 1633UNK    F0014689  29.966   2.096   6.108 -0.3609 -0.6517  0.0871
 1633UNK    C0114690  29.998   2.120   5.982  0.1311 -0.5075  0.1174
 1633UNK    H0214691  30.068   2.038   5.964  1.2223  0.3203  0.5931
 1633UNK    C0314692  29.899   2.157   5.899  0.0602  0.2609 -0.2320
 1633UNK    C0414693  29.886   2.298   5.860 -0.9526  0.1934  0.3022
 1633UNK    F0514694  29.992   2.355   5.794 -0.0066 -0.0012 -0.3020
 1633UNK    F0614695  29.774   2.324   5.784  0.3801 -0.2915  0.1220
 1633UNK    F0714696  29.862   2.383   5.964  0.1084 -0.0726 -0.2859
 1633UNK    H0814697  29.802   2.110   5.907 -0.4002  1.0136 -1.3247
 1634UNK    F0014698  29.057   1.347   6.645 -0.7524  0.2942 -0.6840
 1634UNK    C0114699  28.999   1.465   6.657  0.3824  0.2722  0.0022
 1634UNK    H0214700  28.981   1.507   6.558  0.7411  2.1504  0.6942
 1634UNK    C0314701  28.988   1.516   6.774 -0.3257 -1.0906  0.0354
 1634UNK    C0414702  29.087   1.595   6.844  0.1417  0.0049 -0.8208
 1634UNK    F0514703  29.056   1.600   6.972  0.3127  0.1021  0.2746
 1634UNK    F0614704  29.211   1.538   6.853  0.2948 -0.2669  0.1370
 1634UNK    F0714705  29.102   1.721   6.798 -0.1364 -0.1724 -0.3735
 1634UNK    H0814706  28.888   1.531   6.812 -0.7391 -1.4541 -0.9026
 1635UNK    F0014707  33.955   3.433   8.317  1.0310 -0.2478 -0.0515
 1635UNK    C0114708  33.974   3.302   8.311 -0.6191  0.3171  0.6405
 1635UNK    H0214709  33.879   3.254   8.284  0.7960 -1.3579 -1.5601
 1635UNK    C0314710  34.093   3.255   8.298 -0.7476  0.3778 -0.1381
 1635UNK    C0414711  34.113   3.136   8.213  0.8094  0.5153 -0.0944
 1635UNK    F0514712  34.025   3.034   8.252 -0.0347 -0.0606  0.2109
 1635UNK    F0614713  34.074   3.174   8.088  0.2787  0.0036 -0.0238
 1635UNK    F0714714  34.244   3.093   8.219 -0.0985  0.0430 -0.3690
 1635UNK    H0814715  34.184   3.314   8.298  0.6461 -1.6267 -2.9650
 1636UNK    F0014716  28.565   1.557   4.059  0.3108  0.5776  0.1624
 1636UNK    C0114717  28.582   1.626   4.175  0.5731 -0.2349 -0.4763
 1636UNK    H0214718  28.512   1.585   4.249  0.4842  1.7685  0.5857
 1636UNK    C0314719  28.683   1.713   4.185 -0.1297 -0.1308  0.0358
 1636UNK    C0414720  28.719   1.777   4.314  0.0066 -0.3345  0.3967
 1636UNK    F0514721  28.785   1.891   4.295 -0.0257  0.0083 -0.4705
 1636UNK    F0614722  28.614   1.797   4.397  0.1819 -0.2462  0.1619
 1636UNK    F0714723  28.807   1.705   4.385 -0.5060 -0.1351  0.2113
 1636UNK    H0814724  28.705   1.774   4.098  0.4873  0.5052  0.6238
 1637UNK    F0014725  29.636   4.974   8.114 -0.6289  0.0105 -0.7168
 1637UNK    C0114726  29.638   4.843   8.141  0.5288  0.6819 -0.2274
 1637UNK    H0214727  29.649   4.831   8.249  0.4729  1.4180 -0.1335
 1637UNK    C0314728  29.703   4.765   8.063  0.0172  0.1558  0.1732
 1637UNK    C0414729  29.649   4.634   8.015 -0.1209  0.0169  0.7658
 1637UNK    F0514730  29.753   4.545   7.986  0.3002  0.1938 -0.7365
 1637UNK    F0614731  29.565   4.584   8.104 -0.8123 -0.0014  0.0095
 1637UNK    F0714732  29.573   4.642   7.900 -0.4227  0.1199 -0.0199
 1637UNK    H0814733  29.772   4.813   7.995 -1.6708  3.5396  0.7222
 1638UNK    F0014734  32.084   0.008   2.638  0.1306 -0.2197 -0.3885
 1638UNK    C0114735  32.211   0.047   2.651  0.2155  0.2985  0.0107
 1638UNK    H0214736  32.271   0.009   2.570 -2.3547 -1.7224 -1.0172
 1638UNK    C0314737  32.243   0.089   2.771  0.1867  0.4646 -0.0877
 1638UNK    C0414738  32.377   0.146   2.811  0.6457 -0.5016  0.1142
 1638UNK    F0514739  32.473   0.090   2.738 -0.1918 -0.3212 -0.2184
 1638UNK    F0614740  32.366   0.278   2.782  0.2059  0.5608 -0.1548
 1638UNK    F0714741  32.390   0.137   2.944  0.1292  0.6648  0.1671
 1638UNK    H0814742  32.196   0.040   2.856  0.3331 -0.1538 -0.3630
 1639UNK    F0014743  28.588   1.715   6.000 -0.4454  0.8101 -0.0655
 1639UNK    C0114744  28.521   1.830   5.980 -0.5422  0.0992 -0.3108
 1639UNK    H0214745  28.550   1.901   6.059  0.1202  1.9800 -2.1986
 1639UNK    C0314746  28.491   1.853   5.855  0.3069 -0.6101  0.4956
 1639UNK    C0414747  28.359   1.820   5.796 -0.2917 -0.0362  0.4941
 1639UNK    F0514748  28.266   1.910   5.795 -0.1784 -0.3144 -0.0698
 1639UNK    F0614749  28.384   1.781   5.668 -1.0454 -0.4637 -0.2309
 1639UNK    F0714750  28.302   1.711   5.847  0.4602  0.4853 -0.7360
 1639UNK    H0814751  28.553   1.917   5.793 -0.6372 -0.0319  0.1359
 1640UNK    F0014752  28.653   4.825   5.172  0.0392  0.1307 -0.3413
 1640UNK    C0114753  28.595   4.928   5.105 -0.0511  0.1943 -0.4322
 1640UNK    H0214754  28.511   4.906   5.039 -0.3034  0.6678 -0.2706
 1640UNK    C0314755  28.629   5.055   5.134 -0.0294 -0.5204 -0.5349
 1640UNK    C0414756  28.543   5.160   5.085 -0.6392 -0.6694  0.2401
 1640UNK    F0514757  28.596   5.282   5.108  0.0130  0.1592  0.3004
 1640UNK    F0614758  28.510   5.162   4.950 -0.3548  0.6987 -0.3820
 1640UNK    F0714759  28.431   5.163   5.159  0.2657  0.2247 -0.4113
 1640UNK    H0814760  28.706   5.074   5.208  1.1576  0.6467 -2.0239
 1641UNK    F0014761  29.246   0.489   7.125  0.4347  0.3562  0.2289
 1641UNK    C0114762  29.185   0.394   7.195 -0.1910 -0.5161  0.5633
 1641UNK    H0214763  29.119   0.339   7.127 -2.0418  0.5876  1.4315
 1641UNK    C0314764  29.228   0.363   7.314  0.3762 -0.4999  0.3409
 1641UNK    C0414765  29.199   0.235   7.388 -0.0853 -0.7266 -0.5320
 1641UNK    F0514766  29.209   0.243   7.524  0.0830  0.5026  0.1344
 1641UNK    F0614767  29.069   0.200   7.362 -0.1639  0.0021  0.0656
 1641UNK    F0714768  29.289   0.138   7.349 -0.1901 -0.0922  0.3500
 1641UNK    H0814769  29.323   0.407   7.339 -0.5485  1.5578  0.2672
 1642UNK    F0014770  27.981   2.262   4.787  0.0169 -0.0160 -0.4430
 1642UNK    C0114771  28.016   2.190   4.896 -0.8969 -0.4238  0.4001
 1642UNK    H0214772  28.045   2.253   4.980  2.0244  0.7078 -1.3779
 1642UNK    C0314773  28.043   2.063   4.883  1.0173 -0.1517  0.4868
 1642UNK    C0414774  28.045   1.963   4.987  0.6532 -0.3709 -0.2339
 1642UNK    F0514775  27.924   1.962   5.055  0.2356 -0.1990 -0.3367
 1642UNK    F0614776  28.057   1.837   4.937 -0.1112 -0.0124  0.1824
 1642UNK    F0714777  28.148   1.983   5.070 -0.2376 -0.2946  0.5183
 1642UNK    H0814778  28.087   2.027   4.791  0.1718  0.7504 -0.2816
 1643UNK    F0014779  31.838   3.803   8.591  0.3326 -0.3298  0.2872
 1643UNK    C0114780  31.741   3.838   8.677  0.5478  0.6227 -0.0119
 1643UNK    H0214781  31.654   3.866   8.617 -0.2671 -0.6479  0.5714
 1643UNK    C0314782  31.741   3.822   8.811  0.0486  0.6323  0.3971
 1643UNK    C0414783  31.613   3.785   8.877  0.3977 -0.3148  0.3339
 1643UNK    F0514784  31.593   3.656   8.888  0.0588 -0.3175  0.1533
 1643UNK    F0614785  31.616   3.833   9.003  0.0280  0.7303  0.0244
 1643UNK    F0714786  31.497   3.835   8.816  0.0912 -0.2023  0.4124
 1643UNK    H0814787  31.834   3.796   8.861 -0.5854  0.5889  1.5702
 1644UNK    F0014788  29.779   4.945   9.433 -0.2867 -0.0113  0.7335
 1644UNK    C0114789  29.846   4.846   9.493 -0.2094  0.1632 -0.1895
 1644UNK    H0214790  29.804   4.749   9.468  1.6092 -0.5544 -0.5303
 1644UNK    C0314791  29.937   4.876   9.588 -0.2782 -0.1468 -0.1933
 1644UNK    C0414792  30.014   5.002   9.587  0.5427 -0.9987 -0.0341
 1644UNK    F0514793  29.961   5.098   9.664 -0.1227 -0.0797 -0.4605
 1644UNK    F0614794  30.131   4.975   9.654  0.4837 -0.4522 -0.3987
 1644UNK    F0714795  30.047   5.048   9.467 -0.2168 -0.5314 -0.2203
 1644UNK    H0814796  30.008   4.799   9.615 -0.1026  1.1280  3.1974
 1645UNK    F0014797  29.100   1.246   7.028  0.1692 -0.3392  0.0433
 1645UNK    C0114798  29.082   1.131   6.957  0.2646  0.6924 -0.0987
 1645UNK    H0214799  29.100   1.145   6.851 -1.1514  0.4905 -0.3760
 1645UNK    C0314800  29.000   1.044   7.015  0.3998  0.2042 -0.3621
 1645UNK    C0414801  28.853   1.037   6.990  0.5231 -0.3216  0.2747
 1645UNK    F0514802  28.780   0.969   7.076 -0.6927  0.7100  0.1160
 1645UNK    F0614803  28.788   1.154   6.973 -0.0486  0.4515  0.1874
 1645UNK    F0714804  28.833   0.978   6.869  0.2152  0.4051  0.0306
 1645UNK    H0814805  29.028   1.006   7.112  1.3246  0.5363 -0.4911
 1646UNK    F0014806  29.014   3.023   6.464  0.1182 -0.5600  0.0127
 1646UNK    C0114807  29.059   3.109   6.562  0.3661  0.0833  0.1477
 1646UNK    H0214808  29.091   3.205   6.522  2.8097 -0.2647  1.1837
 1646UNK    C0314809  29.108   3.053   6.670  0.8122 -0.2303  0.1785
 1646UNK    C0414810  29.154   3.135   6.781 -0.6629 -0.0567  0.5899
 1646UNK    F0514811  29.247   3.227   6.737  0.0357 -0.4616  0.0468
 1646UNK    F0614812  29.054   3.185   6.859  0.3961  0.0213 -0.2819
 1646UNK    F0714813  29.233   3.056   6.863  0.1501 -0.1743 -0.4904
 1646UNK    H0814814  29.155   2.956   6.668  2.0446  0.3438  0.8971
 1647UNK    F0014815  29.454   3.062   9.011 -0.4767 -0.1721  0.7856
 1647UNK    C0114816  29.391   3.177   9.038  0.0473  0.3792  0.3798
 1647UNK    H0214817  29.366   3.233   8.948 -0.3585 -1.0645 -0.4243
 1647UNK    C0314818  29.354   3.205   9.166  0.1085 -0.1237 -0.7582
 1647UNK    C0414819  29.269   3.317   9.209  0.7656  0.5324  0.2060
 1647UNK    F0514820  29.157   3.331   9.139 -0.0740  0.4924  0.3703
 1647UNK    F0614821  29.239   3.293   9.336  0.2000  0.1041  0.2013
 1647UNK    F0714822  29.335   3.436   9.208  0.3806  0.2329  0.5998
 1647UNK    H0814823  29.345   3.120   9.232  0.1041  1.2093  1.0048
 1648UNK    F0014824  28.713   0.837   8.414  0.2207 -0.1453  0.7313
 1648UNK    C0114825  28.718   0.762   8.300  0.0629 -0.0278 -0.6281
 1648UNK    H0214826  28.615   0.740   8.271 -0.5276  1.0755  0.5873
 1648UNK    C0314827  28.831   0.735   8.234 -0.2255 -0.6519 -0.0229
 1648UNK    C0414828  28.889   0.602   8.254 -0.7803 -0.1591 -0.3121
 1648UNK    F0514829  29.022   0.599   8.217  0.1765  0.1460 -0.2473
 1648UNK    F0614830  28.881   0.560   8.386 -0.2675  0.3365  0.4370
 1648UNK    F0714831  28.839   0.510   8.165 -0.8155 -0.0404 -0.3157
 1648UNK    H0814832  28.906   0.806   8.205  0.2430 -1.6481 -1.3203
 1649UNK    F0014833  27.752   4.565   8.961  0.3548  0.1292 -0.4376
 1649UNK    C0114834  27.744   4.470   8.864 -0.5332  0.2230  0.1196
 1649UNK    H0214835  27.822   4.479   8.788  0.3229  2.9017  1.2774
 1649UNK    C0314836  27.652   4.381   8.880 -0.5999 -0.0921  0.2813
 1649UNK    C0414837  27.651   4.250   8.807 -0.5303 -0.2501  0.4357
 1649UNK    F0514838  27.723   4.145   8.858  0.1124 -0.1411  0.2267
 1649UNK    F0614839  27.526   4.206   8.796  0.1108  0.1408  0.7615
 1649UNK    F0714840  27.698   4.275   8.682 -0.2304  0.5770  0.1584
 1649UNK    H0814841  27.595   4.371   8.971  0.8112 -0.8976  1.0947
 1650UNK    F0014842  28.290   4.455   9.650 -0.2129  0.2462  0.5722
 1650UNK    C0114843  28.418   4.419   9.669  0.7280 -0.2213 -0.2467
 1650UNK    H0214844  28.478   4.403   9.579  2.3690 -0.5274  0.8634
 1650UNK    C0314845  28.467   4.425   9.792  0.4343 -0.0816  0.6364
 1650UNK    C0414846  28.439   4.317   9.894  0.2455 -0.4069 -0.5581
 1650UNK    F0514847  28.429   4.367  10.016  0.5805  0.7052  0.4198
 1650UNK    F0614848  28.329   4.244   9.858  0.3134  0.1219  0.1874
 1650UNK    F0714849  28.532   4.222   9.881  0.6081 -0.3588 -0.1304
 1650UNK    H0814850  28.450   4.524   9.832 -0.4280 -0.2903  0.8025
 1651UNK    F0014851  30.638   2.469   9.461 -0.1513  0.0964 -0.5723
 1651UNK    C0114852  30.545   2.401   9.528  0.2669 -0.6161  0.0277
 1651UNK    H0214853  30.443   2.408   9.490 -0.2991 -2.7357  1.1150
 1651UNK    C0314854  30.584   2.312   9.624  0.3944 -0.2517 -0.0666
 1651UNK    C0414855  30.523   2.177   9.643 -0.4349 -0.1809  0.1375
 1651UNK    F0514856  30.393   2.192   9.614  0.4791 -0.3235  0.2106
 1651UNK    F0614857  30.576   2.091   9.552  0.2589  0.4573  0.3534
 1651UNK    F0714858  30.550   2.144   9.772 -0.6900 -0.3387  0.3868
 1651UNK    H0814859  30.610   2.354   9.720  1.5429 -1.1282  0.0189
 1652UNK    F0014860  28.793   1.405  10.611 -0.0524  0.7063 -0.1828
 1652UNK    C0114861  28.659   1.370  10.615  0.4821  0.0055  0.0671
 1652UNK    H0214862  28.641   1.265  10.592  0.4991  0.0830 -0.3054
 1652UNK    C0314863  28.585   1.448  10.690  0.2660 -0.3163  0.3117
 1652UNK    C0414864  28.449   1.406  10.732  0.4166 -0.2365 -0.4405
 1652UNK    F0514865  28.405   1.504  10.806  0.9887 -0.1195  0.5990
 1652UNK    F0614866  28.363   1.397  10.628 -0.0018  0.4020 -0.1983
 1652UNK    F0714867  28.441   1.288  10.802 -0.4645 -0.0202 -0.0253
 1652UNK    H0814868  28.627   1.538  10.731  0.5491 -0.5273  0.4903
 1653UNK    F0014869  27.149   3.239  11.364  0.5836  0.1058 -0.2158
 1653UNK    C0114870  27.072   3.144  11.309  0.2912  0.4301  0.4986
 1653UNK    H0214871  27.014   3.098  11.389 -0.3160  0.0982 -0.1357
 1653UNK    C0314872  27.045   3.157  11.172  0.4530  0.2166  0.7950
 1653UNK    C0414873  26.941   3.075  11.106  0.1220 -0.3384 -0.2678
 1653UNK    F0514874  26.948   3.099  10.973  0.1227  0.0447  0.2480
 1653UNK    F0614875  26.966   2.946  11.137  0.4007 -0.1341  0.4282
 1653UNK    F0714876  26.821   3.106  11.158 -0.3080 -0.3840 -0.1545
 1653UNK    H0814877  27.078   3.241  11.111 -3.3557  0.4566 -1.0599
 1654UNK    F0014878  30.213   4.238   6.368 -0.5598  0.1372 -0.0884
 1654UNK    C0114879  30.223   4.291   6.247  0.6256  0.2144 -0.3611
 1654UNK    H0214880  30.233   4.399   6.247 -0.8091  0.3782  1.0756
 1654UNK    C0314881  30.169   4.226   6.146  0.1503  0.0024 -0.0205
 1654UNK    C0414882  30.202   4.262   6.006  0.6520  0.1190 -0.0923
 1654UNK    F0514883  30.206   4.394   5.979 -0.2728 -0.0301 -0.1116
 1654UNK    F0614884  30.327   4.219   5.971 -0.0079 -0.2146  0.4645
 1654UNK    F0714885  30.110   4.218   5.919 -0.1303 -0.4248 -0.2620
 1654UNK    H0814886  30.158   4.120   6.162  1.3519 -0.0160  0.7403
 1655UNK    F0014887  34.099   3.255   9.521  0.2394 -0.4553  0.1438
 1655UNK    C0114888  34.062   3.389   9.537  0.2122  0.6798 -0.7400
 1655UNK    H0214889  34.019   3.425   9.444 -3.5505 -1.0610  0.2000
 1655UNK    C0314890  34.052   3.438   9.662  0.1560 -0.2998  0.8191
 1655UNK    C0414891  34.167   3.466   9.746 -0.0676 -0.6619  0.0587
 1655UNK    F0514892  34.147   3.458   9.881  0.3423  0.2817 -0.1779
 1655UNK    F0614893  34.274   3.398   9.718  0.3920 -0.2655 -0.6218
 1655UNK    F0714894  34.196   3.595   9.735  0.1585  0.0218 -0.5409
 1655UNK    H0814895  33.959   3.483   9.691 -0.6586  0.9148 -3.3482
 1656UNK    F0014896  29.051   0.801   6.862  0.3456  0.0880  0.3280
 1656UNK    C0114897  28.964   0.696   6.834  0.6517 -0.1248 -0.2917
 1656UNK    H0214898  28.952   0.671   6.729  1.6070 -0.4318 -0.3394
 1656UNK    C0314899  28.878   0.670   6.926 -0.3440 -0.2133 -0.4605
 1656UNK    C0414900  28.842   0.527   6.943  0.4736  0.0171  0.0618
 1656UNK    F0514901  28.714   0.534   6.993 -0.5572 -0.3242  0.2179
 1656UNK    F0614902  28.840   0.466   6.824  0.2566  0.5217  0.3279
 1656UNK    F0714903  28.923   0.449   7.022 -0.4438  0.3987  0.0349
 1656UNK    H0814904  28.855   0.737   7.008 -0.5662 -0.1122 -0.6058
 1657UNK    F0014905  39.296   1.642  12.714  0.4498  0.1165 -0.4403
 1657UNK    C0114906  39.260   1.575  12.822  0.7042  0.6121  0.6981
 1657UNK    H0214907  39.309   1.478  12.814  1.3571  0.8130  2.1661
 1657UNK    C0314908  39.150   1.601  12.891 -0.0231 -0.4980 -0.0015
 1657UNK    C0414909  39.128   1.558  13.032  0.6676 -0.0825  0.4703
 1657UNK    F0514910  39.065   1.654  13.101  0.4401  0.4343  0.0577
 1657UNK    F0614911  39.049   1.448  13.035 -0.3340  0.2626 -0.3113
 1657UNK    F0714912  39.243   1.545  13.101  0.1022  0.0674  0.3577
 1657UNK    H0814913  39.122   1.704  12.874  0.3752 -0.3460  0.2521
 1658UNK    F0014914  32.519   1.208   4.813  0.0268 -0.0553  0.5678
 1658UNK    C0114915  32.455   1.274   4.716 -0.1617  0.4325 -0.3376
 1658UNK    H0214916  32.384   1.346   4.755  0.9119  0.5738  1.4201
 1658UNK    C0314917  32.448   1.218   4.595 -0.2711  0.3270 -0.5767
 1658UNK    C0414918  32.422   1.286   4.467  0.6060 -0.1543 -0.3220
 1658UNK    F0514919  32.527   1.344   4.414  0.2882 -0.5832 -0.0643
 1658UNK    F0614920  32.385   1.194   4.365  0.0959 -0.4775 -0.0229
 1658UNK    F0714921  32.333   1.394   4.488 -0.4495 -0.0336 -0.0748
 1658UNK    H0814922  32.473   1.114   4.583  3.5578  0.9777  0.9610
 1659UNK    F0014923  28.485   0.148   9.343 -0.4019  0.3012 -0.1717
 1659UNK    C0114924  28.548   0.086   9.246 -0.0700 -0.3981 -0.2303
 1659UNK    H0214925  28.509  -0.015   9.231 -0.7936 -0.2751  0.7541
 1659UNK    C0314926  28.602   0.167   9.145  0.0108  0.8160 -0.3783
 1659UNK    C0414927  28.724   0.123   9.080  0.6219  0.0939 -0.2803
 1659UNK    F0514928  28.790   0.231   9.033  0.3020  0.1282  0.1491
 1659UNK    F0614929  28.809   0.051   9.156  0.0016 -0.0341 -0.5896
 1659UNK    F0714930  28.685   0.039   8.980  0.4376 -0.0707 -0.4845
 1659UNK    H0814931  28.582   0.273   9.140 -0.6388  0.8643  2.4296
 1660UNK    F0014932  26.537   1.977   8.212 -0.7020  0.4065  0.3412
 1660UNK    C0114933  26.586   1.936   8.094  1.1361  0.4102 -0.3443
 1660UNK    H0214934  26.573   1.998   8.005 -0.2048 -0.2557 -0.6207
 1660UNK    C0314935  26.625   1.808   8.092 -0.1147  0.0415  0.5370
 1660UNK    C0414936  26.716   1.749   7.999  0.5158  0.0606  0.1773
 1660UNK    F0514937  26.657   1.641   7.948 -0.1172  0.0564 -0.0714
 1660UNK    F0614938  26.758   1.825   7.895  0.1029 -0.2400 -0.4242
 1660UNK    F0714939  26.828   1.712   8.062  0.0015  0.0933  0.4291
 1660UNK    H0814940  26.640   1.774   8.194  0.9546 -1.6953 -0.1835
 1661UNK    F0014941  29.393   0.894   8.692 -0.2724 -0.2407 -0.3014
 1661UNK    C0114942  29.492   0.859   8.603 -0.3001  0.0328 -0.6284
 1661UNK    H0214943  29.532   0.760   8.627  0.8394  0.3517 -1.1865
 1661UNK    C0314944  29.541   0.948   8.516  0.8796  0.5309 -0.9480
 1661UNK    C0414945  29.662   1.031   8.542  1.0138 -0.1557 -0.2265
 1661UNK    F0514946  29.663   1.146   8.470 -0.0285 -0.1593 -0.4774
 1661UNK    F0614947  29.663   1.077   8.671  0.0100 -0.3477 -0.5049
 1661UNK    F0714948  29.773   0.962   8.511 -0.3076  0.1966 -0.2821
 1661UNK    H0814949  29.469   0.979   8.441 -1.8007 -0.1082  1.2686
 1662UNK    F0014950  36.260   4.908   8.479  0.4658  0.2090 -0.6575
 1662UNK    C0114951  36.299   5.003   8.568  0.0564  0.7335 -0.2601
 1662UNK    H0214952  36.348   4.943   8.645  2.0879 -0.3711 -2.3730
 1662UNK    C0314953  36.320   5.126   8.537 -0.0639  0.6665  0.1418
 1662UNK    C0414954  36.356   5.226   8.643 -0.0758  0.4061 -0.0501
 1662UNK    F0514955  36.485   5.240   8.644  0.2657  0.7297 -0.4775
 1662UNK    F0614956  36.298   5.351   8.632  0.4540  0.0353  0.4624
 1662UNK    F0714957  36.329   5.167   8.763  0.3098 -0.2244 -0.3012
 1662UNK    H0814958  36.371   5.154   8.446 -1.4638 -1.3612 -1.2870
 1663UNK    F0014959  23.894   4.844  10.626  0.2819 -0.3615  0.6873
 1663UNK    C0114960  23.974   4.829  10.519 -0.1650 -0.2486 -0.5143
 1663UNK    H0214961  23.913   4.834  10.429 -0.6025  1.0328 -0.1562
 1663UNK    C0314962  24.093   4.776  10.530  0.3291 -0.4888 -0.6925
 1663UNK    C0414963  24.192   4.817  10.427 -0.0200  0.2825 -0.0524
 1663UNK    F0514964  24.280   4.722  10.404  0.1281  0.0043 -0.5173
 1663UNK    F0614965  24.130   4.860  10.311 -0.6981 -0.2435 -0.1217
 1663UNK    F0714966  24.269   4.928  10.468 -0.1324 -0.4029  0.0527
 1663UNK    H0814967  24.121   4.738  10.627 -2.2987  0.0917  0.3413
 1664UNK    F0014968  42.543   2.243  11.296  0.8117  0.1108  0.0866
 1664UNK    C0114969  42.554   2.160  11.402 -0.3921  0.1687  0.4107
 1664UNK    H0214970  42.660   2.150  11.425 -0.9595 -0.9024  2.6791
 1664UNK    C0314971  42.455   2.089  11.458 -0.1772  0.8765  0.5298
 1664UNK    C0414972  42.418   1.944  11.418  0.1975 -0.8745  0.1329
 1664UNK    F0514973  42.517   1.848  11.422 -0.2298  0.2479 -0.6761
 1664UNK    F0614974  42.311   1.897  11.486  0.0490  0.4280 -0.6895
 1664UNK    F0714975  42.367   1.933  11.293  0.3968 -0.4680  0.3459
 1664UNK    H0814976  42.363   2.130  11.496 -1.7115 -1.1962 -0.8279
 1665UNK    F0014977  52.659   3.275   0.936 -0.2209 -0.5474 -0.0866
 1665UNK    C0114978  52.565   3.227   0.859 -0.1796  0.9006 -0.4614
 1665UNK    H0214979  52.566   3.283   0.766 -2.8514  2.0034  0.1219
 1665UNK    C0314980  52.468   3.145   0.904 -0.2924 -0.1340 -0.7048
 1665UNK    C0414981  52.486   3.039   1.002  0.4006  0.6620 -0.1897
 1665UNK    F0514982  52.512   3.067   1.133  0.3024  0.3250 -0.5362
 1665UNK    F0614983  52.363   2.990   1.007  0.5373  0.0427  0.0140
 1665UNK    F0714984  52.573   2.952   0.947  0.1016  0.1198  0.1277
 1665UNK    H0814985  52.373   3.195   0.910  0.3232  1.2127 -1.7811
 1666UNK    F0014986  28.551   4.986   2.531 -0.3663  0.2875  0.4983
 1666UNK    C0114987  28.572   5.035   2.650  0.8332  0.2553  0.7876
 1666UNK    H0214988  28.630   5.127   2.652 -0.9429  1.4259 -0.5358
 1666UNK    C0314989  28.479   4.997   2.737  0.1970  0.4033  0.3723
 1666UNK    C0414990  28.445   5.064   2.863 -0.0122 -0.2598 -0.2228
 1666UNK    F0514991  28.357   5.006   2.941 -0.4189 -0.0921 -0.1472
 1666UNK    F0614992  28.561   5.083   2.930 -0.0369  0.4484  0.0163
 1666UNK    F0714993  28.394   5.190   2.838  0.3518  0.1618 -0.2163
 1666UNK    H0814994  28.395   4.951   2.687  0.5530 -1.6089  1.5888
 1667UNK    F0014995  48.246   3.423   6.814 -0.1056  0.2566  0.2691
 1667UNK    C0114996  48.174   3.530   6.782  0.8997 -0.2772 -0.2968
 1667UNK    H0214997  48.130   3.572   6.873  3.0527  2.1787 -0.3504
 1667UNK    C0314998  48.146   3.570   6.660 -0.5915 -0.5405  0.2598
 1667UNK    C0414999  48.099   3.709   6.632 -0.1997  0.1792 -0.1228
 1667UNK    F0515000  48.176   3.780   6.553 -0.6319 -0.6744 -0.0960
 1667UNK    F0615001  47.982   3.693   6.570 -0.0242 -0.6304 -0.2213
 1667UNK    F0715002  48.088   3.787   6.737  0.1016 -0.1308  0.0606
 1667UNK    H0815003  48.161   3.505   6.575 -2.0604 -1.9414  1.0597
 1668UNK    F0015004  40.666   3.160  12.763 -0.4385 -0.2600  0.1545
 1668UNK    C0115005  40.702   3.182  12.634  0.5760  0.2356 -0.4770
 1668UNK    H0215006  40.776   3.105  12.612  1.4039  1.5750 -2.4733
 1668UNK    C0315007  40.692   3.305  12.582  0.1796 -0.9365  0.9434
 1668UNK    C0415008  40.676   3.333  12.435 -0.1639 -0.0069 -0.3186
 1668UNK    F0515009  40.753   3.250  12.370  0.2168 -0.2843 -0.4175
 1668UNK    F0615010  40.550   3.318  12.385 -0.1367  0.4248  0.2804
 1668UNK    F0715011  40.721   3.460  12.411 -0.0937  0.5416  0.4804
 1668UNK    H0815012  40.656   3.386  12.643  0.4777  0.6903 -0.9771
 1669UNK    F0015013  34.812   3.357   0.634 -0.1971 -0.0016 -0.0609
 1669UNK    C0115014  34.916   3.350   0.550 -0.8163 -0.0631  0.4903
 1669UNK    H0215015  34.955   3.249   0.535 -0.5055 -0.1678  1.9400
 1669UNK    C0315016  34.970   3.461   0.512  0.0418 -0.2300  0.4104
 1669UNK    C0415017  35.088   3.523   0.578 -0.5325 -0.0233 -0.1429
 1669UNK    F0515018  35.104   3.648   0.534 -0.3786 -0.8109 -0.3967
 1669UNK    F0615019  35.082   3.526   0.711  0.3905  0.2191  0.4434
 1669UNK    F0715020  35.202   3.454   0.552  0.0119  0.0079 -0.2651
 1669UNK    H0815021  34.916   3.526   0.444 -1.8497 -0.9236  1.2031
 1670UNK    F0015022  22.210   2.173   1.662 -0.1905  0.2918  0.6306
 1670UNK    C0115023  22.322   2.101   1.679  0.4559 -0.1378  0.2767
 1670UNK    H0215024  22.310   1.995   1.704  0.0202 -0.6167 -1.8394
 1670UNK    C0315025  22.441   2.153   1.653 -0.5672 -0.0246 -1.0479
 1670UNK    C0415026  22.560   2.067   1.640  0.3846  0.0129 -0.3493
 1670UNK    F0515027  22.677   2.120   1.680 -0.5157  0.1687  0.3235
 1670UNK    F0615028  22.545   1.948   1.712  0.0250  0.1580  0.7434
 1670UNK    F0715029  22.576   2.036   1.508 -0.2911 -0.0362 -0.0291
 1670UNK    H0815030  22.462   2.256   1.627 -1.1084  0.5388  0.7198
 1671UNK    F0015031  46.277   4.656  13.337 -0.1302  0.1407 -0.6720
 1671UNK    C0115032  46.402   4.651  13.280 -1.0332  0.1815  0.5918
 1671UNK    H0215033  46.481   4.676  13.350 -1.6632  0.5555  1.1837
 1671UNK    C0315034  46.433   4.573  13.181  0.9336 -0.5570  0.3603
 1671UNK    C0415035  46.568   4.561  13.122 -0.2026  0.4208  0.2633
 1671UNK    F0515036  46.623   4.679  13.096  0.0186 -0.8046  0.0741
 1671UNK    F0615037  46.646   4.497  13.206  0.0343 -0.3108  0.0377
 1671UNK    F0715038  46.572   4.485  13.005  0.0438  0.5868 -0.4938
 1671UNK    H0815039  46.376   4.482  13.187 -0.6812  0.4277  0.1978
 1672UNK    F0015040  15.878   0.977   5.919  0.1778  0.3821 -0.0210
 1672UNK    C0115041  15.889   0.882   5.826  1.1009 -0.6647  0.1182
 1672UNK    H0215042  15.911   0.931   5.731 -1.9118  2.5062  0.9800
 1672UNK    C0315043  15.900   0.750   5.849  0.4583 -0.9119 -0.1381
 1672UNK    C0415044  15.777   0.673   5.856 -0.4463  0.1472  1.3975
 1672UNK    F0515045  15.667   0.724   5.905 -0.6307  0.3590  0.8322
 1672UNK    F0615046  15.752   0.636   5.723  0.4015  0.3134 -0.4579
 1672UNK    F0715047  15.799   0.557   5.928 -0.0389 -0.2099 -0.6895
 1672UNK    H0815048  15.957   0.700   5.771  2.4589 -2.1008  2.0398
 1673UNK    F0015049  52.004   1.470   5.400 -0.4425 -0.5777 -0.1286
 1673UNK    C0115050  51.876   1.500   5.381  0.1076 -0.0494  0.4826
 1673UNK    H0215051  51.843   1.579   5.449  2.2965  1.1971  0.1533
 1673UNK    C0315052  51.814   1.479   5.263  0.2257  0.4230 -0.1181
 1673UNK    C0415053  51.705   1.559   5.212  0.3051  0.3578  0.0505
 1673UNK    F0515054  51.706   1.687   5.179 -0.5964 -0.5822 -0.0659
 1673UNK    F0615055  51.661   1.510   5.096 -0.6735 -0.1608  0.2633
 1673UNK    F0715056  51.615   1.561   5.311 -0.9117 -0.6580 -0.0507
 1673UNK    H0815057  51.873   1.452   5.177  0.5559  0.1547  0.1915
 1674UNK    F0015058  37.814   3.469   5.371  0.2206  0.0140 -0.0264
 1674UNK    C0115059  37.769   3.360   5.308  0.3043  1.0391  0.8303
 1674UNK    H0215060  37.857   3.297   5.302 -0.4363  0.2716 -3.1836
 1674UNK    C0315061  37.642   3.320   5.299 -1.0041 -0.3875 -0.1105
 1674UNK    C0415062  37.606   3.181   5.345  0.3145 -0.5715 -0.7769
 1674UNK    F0515063  37.715   3.109   5.370  0.7441  0.2975 -0.0293
 1674UNK    F0615064  37.531   3.169   5.457 -0.3853 -0.2529 -0.2527
 1674UNK    F0715065  37.547   3.121   5.237  0.6226 -0.1289 -0.2400
 1674UNK    H0815066  37.585   3.344   5.211 -0.7198  1.0534  0.0917
 1675UNK    F0015067  39.459   5.203   1.128 -0.3466 -0.0778 -0.1285
 1675UNK    C0115068  39.357   5.133   1.183  0.1978 -0.4213 -0.5239
 1675UNK    H0215069  39.268   5.116   1.122 -0.1683 -1.7819  0.3849
 1675UNK    C0315070  39.368   5.105   1.312 -0.1969  0.1913  0.3344
 1675UNK    C0415071  39.311   4.987   1.379 -0.4711 -0.5994 -0.4800
 1675UNK    F0515072  39.304   5.023   1.512 -1.0667 -0.3116 -0.2810
 1675UNK    F0615073  39.190   4.947   1.322 -0.4083 -0.0711 -0.0170
 1675UNK    F0715074  39.380   4.867   1.372 -0.0366  0.1647  0.1837
 1675UNK    H0815075  39.454   5.135   1.370 -0.6328 -0.2894  1.2267
 1676UNK    F0015076   4.650   3.651   8.107  0.2690  0.3951  0.4282
 1676UNK    C0115077   4.537   3.633   8.040 -0.2490  0.3186  0.0792
 1676UNK    H0215078   4.483   3.726   8.024 -0.1988  0.3183 -0.0934
 1676UNK    C0315079   4.493   3.509   8.012 -1.1728 -0.5238 -0.9829
 1676UNK    C0415080   4.383   3.480   7.925 -0.1427 -0.5285  0.5547
 1676UNK    F0515081   4.266   3.530   7.970  0.5196  0.2354  0.5931
 1676UNK    F0615082   4.399   3.542   7.801 -0.1190  0.1923  0.3059
 1676UNK    F0715083   4.382   3.346   7.906 -0.1243  0.3013 -0.7328
 1676UNK    H0815084   4.539   3.423   8.058  0.7536  0.1760 -1.5139
 1677UNK    F0015085  10.545   4.641  11.015  0.5992 -0.0061  0.1513
 1677UNK    C0115086  10.553   4.678  11.140 -0.6404  0.2899  0.7405
 1677UNK    H0215087  10.531   4.593  11.204  2.0889  0.1608  1.5741
 1677UNK    C0315088  10.564   4.804  11.176 -0.3552  0.0501 -0.5010
 1677UNK    C0415089  10.642   4.861  11.294  0.0775  0.0858 -0.3617
 1677UNK    F0515090  10.629   4.997  11.298 -0.6114  0.2199  0.0443
 1677UNK    F0615091  10.580   4.817  11.407  0.7469 -0.4245 -0.2277
 1677UNK    F0715092  10.774   4.831  11.309 -0.2118 -0.1114 -0.2925
 1677UNK    H0815093  10.513   4.879  11.119 -1.2565  1.5420  2.1684
 1678UNK    F0015094  44.027   2.908   4.478  0.6815  0.2106  0.0840
 1678UNK    C0115095  43.953   3.020   4.468 -0.1779 -0.3230 -0.3931
 1678UNK    H0215096  43.893   3.017   4.376 -0.1443  2.3262 -0.5372
 1678UNK    C0315097  43.906   3.081   4.574  0.2141  0.4538 -0.4289
 1678UNK    C0415098  43.815   3.194   4.549  0.2335 -0.2660 -0.2425
 1678UNK    F0515099  43.814   3.274   4.658  0.7880 -0.2059 -0.2450
 1678UNK    F0615100  43.862   3.267   4.441  0.1075  0.3713 -0.1296
 1678UNK    F0715101  43.690   3.158   4.509 -0.2537  0.4335  0.0479
 1678UNK    H0815102  43.958   3.091   4.668 -1.6246 -1.3430  0.8163
 1679UNK    F0015103   2.416   3.679   8.832 -0.4126 -0.1474  0.2213
 1679UNK    C0115104   2.311   3.619   8.775 -0.2873  0.1740  0.4067
 1679UNK    H0215105   2.294   3.650   8.672 -1.2373 -2.1648 -0.1818
 1679UNK    C0315106   2.217   3.569   8.850  0.1810  0.1968  0.6462
 1679UNK    C0415107   2.103   3.494   8.808 -0.2679 -0.0702 -0.2021
 1679UNK    F0515108   2.142   3.373   8.761 -0.1108  0.0488  0.2292
 1679UNK    F0615109   2.006   3.480   8.907 -0.4489  0.3113 -0.0402
 1679UNK    F0715110   2.045   3.564   8.709 -0.5329 -0.7515 -0.6881
 1679UNK    H0815111   2.242   3.540   8.951  1.4197 -1.7524 -0.1799
 1680UNK    F0015112  16.501   4.945   3.029  0.0435  0.1555  0.1098
 1680UNK    C0115113  16.421   4.859   3.092  0.5229 -0.0312  0.0140
 1680UNK    H0215114  16.324   4.904   3.112  0.4497 -1.1590  2.4668
 1680UNK    C0315115  16.442   4.734   3.059 -0.3079  0.0286  0.6526
 1680UNK    C0415116  16.323   4.643   3.042 -0.2078  0.9562 -0.7682
 1680UNK    F0515117  16.370   4.515   3.047 -0.1486 -0.4418  0.3458
 1680UNK    F0615118  16.224   4.633   3.141 -0.0158 -0.6475  0.4640
 1680UNK    F0715119  16.277   4.674   2.923  0.1399  0.4311 -1.2199
 1680UNK    H0815120  16.535   4.704   3.014  1.0114  7.0563 -1.9691
 1681UNK    F0015121  50.100   4.778   2.032 -0.2248 -0.2844  0.0419
 1681UNK    C0115122  50.129   4.675   2.116 -0.0324 -0.4030 -0.2160
 1681UNK    H0215123  50.228   4.633   2.095  0.9208  1.2137  0.9305
 1681UNK    C0315124  50.067   4.656   2.232 -0.7375  0.4831 -0.5254
 1681UNK    C0415125  50.111   4.559   2.339  0.3875  0.3865  0.6452
 1681UNK    F0515126  50.007   4.530   2.423  0.0689 -0.5960 -0.1187
 1681UNK    F0615127  50.146   4.440   2.280  0.2752 -0.7333  0.9263
 1681UNK    F0715128  50.220   4.605   2.406 -0.2752 -0.2603  0.2608
 1681UNK    H0815129  50.010   4.736   2.275  0.2867  1.5905 -1.1807
 1682UNK    F0015130  41.846   2.972   6.880 -0.1672 -0.2590 -0.3124
 1682UNK    C0115131  41.967   2.928   6.847 -0.7749 -0.2685  0.0052
 1682UNK    H0215132  42.039   3.005   6.873  1.3907 -1.7082 -1.5719
 1682UNK    C0315133  41.968   2.852   6.736 -0.1818 -0.4679  0.1384
 1682UNK    C0415134  42.075   2.765   6.679  0.4008 -0.1465  0.5507
 1682UNK    F0515135  42.049   2.749   6.547 -0.2300  0.2211  0.2272
 1682UNK    F0615136  42.195   2.828   6.687  0.0610 -0.1616  0.2988
 1682UNK    F0715137  42.081   2.647   6.749  0.0702 -0.4536 -0.1007
 1682UNK    H0815138  41.874   2.846   6.684  0.4323 -0.2097 -1.0016
 1683UNK    F0015139  48.974   4.354   3.839 -0.2740  0.0263  0.0625
 1683UNK    C0115140  49.036   4.349   3.721  0.7330 -0.1786 -0.4562
 1683UNK    H0215141  49.135   4.394   3.731  0.6481 -0.2892  1.0439
 1683UNK    C0315142  49.013   4.252   3.638  0.4163  0.0515 -0.7199
 1683UNK    C0415143  49.115   4.213   3.538  0.1873  0.5644 -0.0015
 1683UNK    F0515144  49.169   4.319   3.482 -0.0421  0.5010  0.3532
 1683UNK    F0615145  49.215   4.140   3.602  0.1641 -0.4972  0.1453
 1683UNK    F0715146  49.059   4.134   3.442  0.0518 -0.4339  0.0958
 1683UNK    H0815147  48.920   4.198   3.640 -0.6198  1.8797  2.0522
 1684UNK    F0015148  49.564   2.320   3.939 -0.5018 -0.2256 -0.3595
 1684UNK    C0115149  49.646   2.413   3.892 -0.4308 -0.3658 -0.6691
 1684UNK    H0215150  49.749   2.387   3.914 -0.5926  2.2442  3.8189
 1684UNK    C0315151  49.605   2.542   3.895  0.0668  0.6681 -0.0907
 1684UNK    C0415152  49.675   2.640   3.808 -0.3555  0.0912 -0.4783
 1684UNK    F0515153  49.642   2.625   3.680  0.5046 -0.1351  0.1085
 1684UNK    F0615154  49.663   2.762   3.858  0.1928  0.0018  0.4574
 1684UNK    F0715155  49.809   2.613   3.800 -0.3767 -0.1816 -0.2595
 1684UNK    H0815156  49.518   2.579   3.947 -0.6570  1.7775 -2.0282
 1685UNK    F0015157  48.018   5.005   7.875  0.2029 -0.4606  0.3183
 1685UNK    C0115158  48.125   4.950   7.918 -0.3568 -0.0377 -0.1785
 1685UNK    H0215159  48.119   4.846   7.887 -0.3790  0.2605 -1.1772
 1685UNK    C0315160  48.192   4.981   8.028  0.2590 -0.4266  0.2714
 1685UNK    C0415161  48.335   4.958   8.041 -0.0140  0.2434  0.6552
 1685UNK    F0515162  48.381   4.837   8.018 -0.7034 -0.3990  0.0675
 1685UNK    F0615163  48.398   5.021   7.936  0.1632 -0.2039 -0.0497
 1685UNK    F0715164  48.390   5.004   8.158 -0.4556 -0.1462  0.2713
 1685UNK    H0815165  48.160   5.074   8.073  1.7097  2.5052 -4.4122
 1686UNK    F0015166   1.008   4.787  13.887  0.4606 -0.2882  0.3893
 1686UNK    C0115167   0.937   4.788  13.999  0.0140  0.3065  0.1283
 1686UNK    H0215168   0.996   4.821  14.084  0.9212 -5.8250  2.1327
 1686UNK    C0315169   0.842   4.695  14.015  0.2852 -1.2797 -0.2138
 1686UNK    C0415170   0.883   4.564  14.077 -0.1590  0.3046  0.8270
 1686UNK    F0515171   0.982   4.493  14.013  0.1063  0.1877  0.4357
 1686UNK    F0615172   0.915   4.567  14.204  0.0059  0.1288 -0.8555
 1686UNK    F0715173   0.772   4.488  14.081 -0.2317 -0.0132 -0.5070
 1686UNK    H0815174   0.794   4.675  13.921 -0.7554 -2.6049  0.5760
 1687UNK    F0015175  27.598   1.252  10.866  0.3564 -0.2831 -0.3920
 1687UNK    C0115176  27.671   1.361  10.841  0.2345 -0.4429 -0.1986
 1687UNK    H0215177  27.705   1.395  10.939 -2.2076  1.6015 -0.0011
 1687UNK    C0315178  27.713   1.387  10.717 -0.8397 -0.2234  0.5727
 1687UNK    C0415179  27.836   1.464  10.697 -0.2875  0.2072 -0.1239
 1687UNK    F0515180  27.825   1.548  10.596  0.1638 -0.4987  0.5016
 1687UNK    F0615181  27.869   1.532  10.808  0.1727  0.5058  0.0994
 1687UNK    F0715182  27.941   1.386  10.659  0.4996 -0.3488 -0.2662
 1687UNK    H0815183  27.688   1.325  10.632 -0.1295  1.8335 -1.1869
 1688UNK    F0015184  15.680   3.047   0.589 -0.1056 -0.3466 -0.1507
 1688UNK    C0115185  15.559   3.070   0.639  0.4455 -0.5366 -0.0207
 1688UNK    H0215186  15.536   3.174   0.613  0.5840 -0.9301 -1.8240
 1688UNK    C0315187  15.479   2.964   0.628 -0.2090  0.3460 -0.2333
 1688UNK    C0415188  15.337   2.952   0.602 -0.7407 -0.2455  0.2644
 1688UNK    F0515189  15.308   2.971   0.476 -0.1753  0.0545  0.1852
 1688UNK    F0615190  15.300   2.827   0.627 -0.3085 -0.4093  0.4676
 1688UNK    F0715191  15.274   3.038   0.685 -0.0845  0.0839 -0.4619
 1688UNK    H0815192  15.525   2.867   0.618  0.4088  0.5450  0.5684
 1689UNK    F0015193   5.138   0.337   1.817 -0.1345  0.1760  0.2017
 1689UNK    C0115194   5.008   0.323   1.797 -0.0296 -0.0308 -0.3346
 1689UNK    H0215195   4.979   0.393   1.719  1.5934  1.1690  0.0897
 1689UNK    C0315196   4.933   0.255   1.873  0.6687  0.4141  0.2056
 1689UNK    C0415197   4.865   0.320   1.990 -0.5731 -0.7995  0.1100
 1689UNK    F0515198   4.765   0.396   1.956 -0.1490 -0.1878 -0.0433
 1689UNK    F0615199   4.825   0.216   2.069 -0.2261 -0.0039  0.1571
 1689UNK    F0715200   4.953   0.404   2.044  0.2684  0.2053 -0.2082
 1689UNK    H0815201   4.958   0.151   1.885 -0.1845 -0.0060 -1.3849
 1690UNK    F0015202  48.569   0.302   4.276 -0.4241 -0.1928  0.1419
 1690UNK    C0115203  48.514   0.423   4.260 -0.3694 -0.0924  0.6234
 1690UNK    H0215204  48.574   0.502   4.306 -1.4597  2.4966 -2.2252
 1690UNK    C0315205  48.405   0.444   4.187  0.3377 -0.6700 -0.2102
 1690UNK    C0415206  48.356   0.575   4.140  0.0221 -0.2623 -0.6396
 1690UNK    F0515207  48.428   0.608   4.028 -0.1219 -0.2319 -0.1487
 1690UNK    F0615208  48.230   0.575   4.098  0.5053  0.4791 -0.0914
 1690UNK    F0715209  48.383   0.670   4.230  0.1017 -0.5630  0.5151
 1690UNK    H0815210  48.390   0.365   4.114 -0.5527 -1.5613  0.9152
 1691UNK    F0015211  28.702   1.951  10.892  0.1430 -0.2177 -0.4231
 1691UNK    C0115212  28.678   1.842  10.823 -0.1327  0.1388 -0.0090
 1691UNK    H0215213  28.572   1.818  10.822  0.1658 -1.3262 -3.2274
 1691UNK    C0315214  28.768   1.789  10.750  0.8175 -0.2452  0.8947
 1691UNK    C0415215  28.893   1.757  10.814 -0.0672 -0.2164  0.4406
 1691UNK    F0515216  28.928   1.848  10.905 -0.2445 -0.2413  0.6094
 1691UNK    F0615217  28.878   1.633  10.875  0.1076  0.6452 -0.1586
 1691UNK    F0715218  28.997   1.749  10.728 -0.5840 -0.1282 -0.3024
 1691UNK    H0815219  28.795   1.820  10.650 -0.4411 -0.3232  0.5124
 1692UNK    F0015220  11.384   2.853   6.137 -0.3583  0.0288  0.5112
 1692UNK    C0115221  11.384   2.725   6.111  0.5249  0.8833 -0.1308
 1692UNK    H0215222  11.458   2.674   6.172  2.0621  4.1530  0.8391
 1692UNK    C0315223  11.302   2.684   6.019  0.0992 -0.2324  1.3827
 1692UNK    C0415224  11.219   2.569   6.049 -0.1347  0.0219 -0.7655
 1692UNK    F0515225  11.111   2.612   6.114  0.0138 -0.3210 -0.0930
 1692UNK    F0615226  11.176   2.517   5.933  0.1285 -0.6228  0.0008
 1692UNK    F0715227  11.272   2.465   6.123  0.5760 -0.3995  0.4226
 1692UNK    H0815228  11.242   2.751   5.960  0.4599 -0.2295  1.0179
 1693UNK    F0015229   5.485   3.382  14.174 -0.2904  0.5677  0.3288
 1693UNK    C0115230   5.618   3.359  14.173 -0.1938  0.1843  0.4644
 1693UNK    H0215231   5.650   3.276  14.110  0.1204  0.1351  0.6906
 1693UNK    C0315232   5.688   3.456  14.227 -0.2867 -0.1364  0.6566
 1693UNK    C0415233   5.838   3.465  14.230 -0.8241 -0.0236 -0.8841
 1693UNK    F0515234   5.875   3.553  14.321  0.0213 -0.1879  0.0598
 1693UNK    F0615235   5.890   3.354  14.288 -0.1679 -0.1214  0.1570
 1693UNK    F0715236   5.888   3.496  14.116  1.1174  0.1967 -0.1547
 1693UNK    H0815237   5.644   3.544  14.271  3.1322  1.0774  1.7660
 1694UNK    F0015238  11.040   5.105  11.339  0.0758  0.0361  0.5928
 1694UNK    C0115239  10.966   5.207  11.380  1.0304  0.8193 -0.0335
 1694UNK    H0215240  10.889   5.215  11.304  1.6247 -1.2990 -0.9066
 1694UNK    C0315241  10.981   5.257  11.501 -0.1826  0.1002 -0.0616
 1694UNK    C0415242  11.066   5.375  11.518 -0.2269 -0.0774  0.1299
 1694UNK    F0515243  11.180   5.347  11.458  0.2095  0.8146 -0.0358
 1694UNK    F0615244  11.004   5.476  11.455 -0.0384 -0.2113 -0.1227
 1694UNK    F0715245  11.084   5.402  11.649 -0.4865  0.4150 -0.2529
 1694UNK    H0815246  10.905   5.249  11.578  1.3869 -0.4714  1.4545
 1695UNK    F0015247  22.621   0.220  13.922  0.5588 -0.1805  0.2709
 1695UNK    C0115248  22.524   0.123  13.900 -0.5833  0.8428 -0.2530
 1695UNK    H0215249  22.449   0.165  13.831  0.1062 -0.3988 -1.7828
 1695UNK    C0315250  22.494   0.041  13.997 -0.8093 -0.3470  0.0276
 1695UNK    C0415251  22.422   0.082  14.116  0.2021  0.0360  0.3562
 1695UNK    F0515252  22.428   0.214  14.147  0.0890 -0.4772 -0.1022
 1695UNK    F0615253  22.295   0.042  14.108  0.4373 -0.8173 -0.6896
 1695UNK    F0715254  22.484   0.013  14.220 -0.1910  0.1976 -0.0270
 1695UNK    H0815255  22.491  -0.065  13.981  0.1858 -0.2957 -0.5276
 1696UNK    F0015256  21.379   3.145   8.914 -0.0477  0.4001  0.3023
 1696UNK    C0115257  21.435   3.206   9.016 -0.4715  0.0137  0.1173
 1696UNK    H0215258  21.490   3.297   8.990 -1.2346  1.5599  3.6154
 1696UNK    C0315259  21.418   3.162   9.139  0.1749 -0.4421  0.8198
 1696UNK    C0415260  21.444   3.236   9.261  0.5769  0.9433 -0.2924
 1696UNK    F0515261  21.517   3.172   9.354  0.7729 -0.3746  0.8020
 1696UNK    F0615262  21.522   3.332   9.223  0.3894 -0.0028 -0.0745
 1696UNK    F0715263  21.335   3.292   9.316  0.0904 -0.0841 -0.5356
 1696UNK    H0815264  21.429   3.058   9.167  2.0576 -0.3359  0.5641
 1697UNK    F0015265  24.597   1.823  10.024  0.1842 -0.2206 -0.3188
 1697UNK    C0115266  24.697   1.751   9.978  0.8521 -0.4753  0.8188
 1697UNK    H0215267  24.789   1.810   9.975  0.5168 -0.0149 -1.1646
 1697UNK    C0315268  24.666   1.623   9.936  0.4161 -0.1245 -0.3109
 1697UNK    C0415269  24.764   1.531   9.877 -0.5566  0.5836  0.1232
 1697UNK    F0515270  24.844   1.491   9.982  0.0704  0.1477  0.2092
 1697UNK    F0615271  24.702   1.413   9.847  0.1453 -0.1878 -0.2593
 1697UNK    F0715272  24.826   1.564   9.759 -0.0621  0.5974 -0.3150
 1697UNK    H0815273  24.576   1.572   9.969  0.7003  1.0644  2.3888
 1698UNK    F0015274  36.777   1.046   5.435 -0.1678  0.1199  0.0277
 1698UNK    C0115275  36.850   0.937   5.458 -1.0375 -0.9527  0.8924
 1698UNK    H0215276  36.941   0.978   5.501 -0.8349 -0.9586  0.4625
 1698UNK    C0315277  36.789   0.828   5.481 -0.4771  1.3279 -0.1555
 1698UNK    C0415278  36.847   0.718   5.556  0.9739  0.5417 -0.2998
 1698UNK    F0515279  36.854   0.746   5.691 -0.1034  0.2045 -0.6059
 1698UNK    F0615280  36.781   0.601   5.554  0.2485 -0.0912 -0.8711
 1698UNK    F0715281  36.979   0.684   5.526  0.8546  0.3102 -0.2512
 1698UNK    H0815282  36.682   0.822   5.470 -0.5724 -0.0901  1.4087
 1699UNK    F0015283  25.599   2.894  11.165 -0.0142 -0.3082  0.3710
 1699UNK    C0115284  25.650   2.920  11.045 -0.3864  0.1087  0.1044
 1699UNK    H0215285  25.578   2.964  10.976  1.3246  0.9271 -1.2233
 1699UNK    C0315286  25.781   2.928  11.031  0.1723  0.4138 -0.3636
 1699UNK    C0415287  25.834   2.971  10.901 -0.3592  0.0560  0.0291
 1699UNK    F0515288  25.840   3.102  10.901  0.4421  0.0587 -0.2241
 1699UNK    F0615289  25.955   2.922  10.880 -0.0444  0.1238 -0.4804
 1699UNK    F0715290  25.761   2.918  10.800 -0.0185  0.3543 -0.1181
 1699UNK    H0815291  25.828   2.970  11.120 -0.8987  1.6577 -0.3691
 1700UNK    F0015292  16.796   1.617   8.753 -0.1891  0.3248 -0.3569
 1700UNK    C0115293  16.840   1.584   8.624  0.2137 -0.1161 -0.8912
 1700UNK    H0215294  16.908   1.499   8.616  3.7483  2.2040  2.2602
 1700UNK    C0315295  16.784   1.647   8.524  1.1689 -0.0328  0.3791
 1700UNK    C0415296  16.845   1.763   8.457 -0.2096 -0.2702  0.2355
 1700UNK    F0515297  16.921   1.832   8.545 -0.4703  0.0446 -0.1967
 1700UNK    F0615298  16.889   1.759   8.326  0.1345  0.0940 -0.1892
 1700UNK    F0715299  16.752   1.858   8.450  0.2853 -1.0897  0.2043
 1700UNK    H0815300  16.742   1.598   8.437 -0.2591  5.1571 -2.0594
 1701UNK    F0015301  23.232   4.779   6.633  0.2032  0.6237  0.3982
 1701UNK    C0115302  23.275   4.787   6.504  0.0882 -0.5908  0.7233
 1701UNK    H0215303  23.182   4.779   6.447  0.1387  1.8376  0.2695
 1701UNK    C0315304  23.368   4.874   6.494  0.4155 -0.5797  0.3398
 1701UNK    C0415305  23.373   4.971   6.383  0.3257  1.3005  0.2876
 1701UNK    F0515306  23.341   4.916   6.262  0.2217 -0.0850 -0.0885
 1701UNK    F0615307  23.294   5.084   6.402 -0.5078  0.2059  0.0419
 1701UNK    F0715308  23.495   5.007   6.384  0.3212 -0.0705  0.1325
 1701UNK    H0815309  23.466   4.835   6.516  0.3681  0.4972  2.6331
 1702UNK    F0015310  27.043   2.255  11.163 -0.5241  0.3183  0.3681
 1702UNK    C0115311  27.113   2.257  11.051 -0.2298  0.2693  0.4035
 1702UNK    H0215312  27.116   2.164  10.993 -1.2315  1.2057 -1.2068
 1702UNK    C0315313  27.176   2.369  11.017  0.3004  0.0160 -0.6483
 1702UNK    C0415314  27.234   2.402  10.885 -0.0168  0.7875  0.3019
 1702UNK    F0515315  27.317   2.514  10.892 -0.4269  0.1259  0.5045
 1702UNK    F0615316  27.305   2.298  10.839  0.6388  0.0875  0.0420
 1702UNK    F0715317  27.144   2.432  10.789 -0.0211 -0.5078  0.5373
 1702UNK    H0815318  27.242   2.413  11.091 -0.9544  1.4252 -0.3368
 1703UNK    F0015319  36.652   3.538   0.706  0.0924  0.3745 -0.0406
 1703UNK    C0115320  36.647   3.401   0.708  0.0481  0.4838 -0.1023
 1703UNK    H0215321  36.611   3.363   0.612  0.4276 -1.5007  0.5328
 1703UNK    C0315322  36.695   3.333   0.814  0.1898  0.2248  0.9505
 1703UNK    C0415323  36.743   3.199   0.806 -0.2090  0.4066 -0.0123
 1703UNK    F0515324  36.661   3.114   0.735 -0.5077  0.0577 -0.0111
 1703UNK    F0615325  36.879   3.180   0.778  0.0393  0.1508 -0.2000
 1703UNK    F0715326  36.725   3.156   0.937  0.3223 -0.1694 -0.0421
 1703UNK    H0815327  36.744   3.379   0.898  2.5082  1.0993 -0.8124
 1704UNK    F0015328  45.535   2.272   3.396 -0.0716 -0.3339 -0.4071
 1704UNK    C0115329  45.663   2.234   3.383 -0.8516  0.3120 -0.6405
 1704UNK    H0215330  45.722   2.310   3.332  0.5189 -0.0991  0.2977
 1704UNK    C0315331  45.695   2.107   3.422 -0.1537 -0.2818  0.5382
 1704UNK    C0415332  45.815   2.044   3.371  0.3734  0.2323 -0.5630
 1704UNK    F0515333  45.839   2.095   3.250  0.1567  0.3992 -0.0805
 1704UNK    F0615334  45.917   2.054   3.453 -0.2027 -0.3801 -0.0511
 1704UNK    F0715335  45.788   1.916   3.364  0.6305  0.5203  0.2804
 1704UNK    H0815336  45.616   2.038   3.446 -0.7904  0.3119  0.1313
 1705UNK    F0015337  23.556   4.002   2.262 -0.3769  0.2725  0.2256
 1705UNK    C0115338  23.527   4.018   2.394  0.1698  0.0174 -0.0686
 1705UNK    H0215339  23.570   4.101   2.449 -3.5453  1.6993  0.4042
 1705UNK    C0315340  23.453   3.917   2.443  0.5906 -0.1651  0.5601
 1705UNK    C0415341  23.514   3.789   2.478  0.1968 -0.0727 -0.0697
 1705UNK    F0515342  23.434   3.691   2.515  0.1165  0.9209  0.0486
 1705UNK    F0615343  23.594   3.754   2.374  0.4500  0.0697 -0.1578
 1705UNK    F0715344  23.612   3.799   2.575 -0.0821 -0.0696  0.1735
 1705UNK    H0815345  23.364   3.892   2.387  0.7741  2.8577 -1.1974
 1706UNK    F0015346  15.957   2.198   0.227  0.0574  0.0022 -0.1610
 1706UNK    C0115347  15.955   2.288   0.326 -0.1969  0.3936 -0.1658
 1706UNK    H0215348  15.905   2.378   0.291  1.5745  1.5286  0.1524
 1706UNK    C0315349  15.986   2.253   0.453 -1.0913 -0.2645 -0.3758
 1706UNK    C0415350  15.928   2.334   0.563 -0.2032 -0.0561  0.1995
 1706UNK    F0515351  15.956   2.467   0.554 -0.2510 -0.0293  0.3910
 1706UNK    F0615352  15.794   2.308   0.566  0.4267  0.2236 -0.2709
 1706UNK    F0715353  15.965   2.289   0.685  0.0943  0.0335 -0.1533
 1706UNK    H0815354  15.988   2.151   0.489  1.4700  0.4219  1.6837
 1707UNK    F0015355  10.865   2.058   5.235 -0.3062  0.7967  0.1570
 1707UNK    C0115356  10.772   1.960   5.236 -0.5324 -1.1826  0.8357
 1707UNK    H0215357  10.812   1.877   5.295  0.7709 -0.7421  0.5771
 1707UNK    C0315358  10.668   1.957   5.162  0.7165  0.2396 -0.5081
 1707UNK    C0415359  10.541   1.889   5.204 -0.3947  0.1939  0.3474
 1707UNK    F0515360  10.482   1.984   5.276 -0.0378 -0.2974  1.0518
 1707UNK    F0615361  10.457   1.863   5.098  0.4160 -0.9823 -0.0831
 1707UNK    F0715362  10.557   1.781   5.278 -0.6296  0.2431 -0.0785
 1707UNK    H0815363  10.675   1.986   5.058 -1.6171 -0.4071 -0.8749
 1708UNK    F0015364  34.619   0.033   1.112  0.0721 -0.2033 -0.1215
 1708UNK    C0115365  34.653   0.158   1.151  0.4659 -0.0574 -0.1687
 1708UNK    H0215366  34.572   0.223   1.119 -2.3681 -1.6247  3.4277
 1708UNK    C0315367  34.768   0.189   1.209  0.1328 -0.7186  0.4921
 1708UNK    C0415368  34.800   0.316   1.274  0.5465 -0.5503  0.3179
 1708UNK    F0515369  34.780   0.428   1.200 -0.2670  0.4508 -0.4329
 1708UNK    F0615370  34.716   0.330   1.375  0.1521 -0.4990 -0.0800
 1708UNK    F0715371  34.925   0.312   1.326  0.2144  0.0420 -0.1088
 1708UNK    H0815372  34.834   0.105   1.227 -1.4390 -2.3199 -1.0132
 1709UNK    F0015373  37.092   4.807  11.466 -0.1091 -0.4523  0.4896
 1709UNK    C0115374  37.115   4.851  11.339 -0.2238 -0.3671 -0.3180
 1709UNK    H0215375  37.049   4.796  11.272 -0.5623 -0.2994 -0.0390
 1709UNK    C0315376  37.244   4.889  11.321 -0.4899  0.0673 -0.0431
 1709UNK    C0415377  37.349   4.807  11.264 -0.3577  0.4738  0.6573
 1709UNK    F0515378  37.338   4.802  11.131  0.6634 -0.3118  0.4095
 1709UNK    F0615379  37.469   4.861  11.290  0.1407 -0.0107 -0.0112
 1709UNK    F0715380  37.343   4.683  11.328  0.1488 -0.7448 -0.1562
 1709UNK    H0815381  37.282   4.958  11.395  3.3046  1.5179 -3.1833
 1710UNK    F0015382  19.804   2.864   0.945  0.4818  0.1931 -0.1979
 1710UNK    C0115383  19.710   2.881   0.859 -0.6837 -0.0572  0.2539
 1710UNK    H0215384  19.718   2.799   0.788 -0.7198  0.0027  0.1806
 1710UNK    C0315385  19.696   3.004   0.827 -0.3639 -0.0496  0.1598
 1710UNK    C0415386  19.576   3.071   0.776  0.2234  0.1727 -0.4172
 1710UNK    F0515387  19.509   3.004   0.678 -0.1574 -0.4489  0.3499
 1710UNK    F0615388  19.489   3.107   0.870 -0.1617 -0.5234  0.7411
 1710UNK    F0715389  19.615   3.190   0.722 -0.2410 -0.3578  0.2036
 1710UNK    H0815390  19.765   3.070   0.876  0.2120  0.8555 -1.8108
 1711UNK    F0015391  30.914   4.288  13.699 -0.8802  0.0489 -0.1941
 1711UNK    C0115392  30.977   4.380  13.626 -0.2307  0.1884 -0.4616
 1711UNK    H0215393  30.911   4.445  13.568  0.2781  2.2758  1.2498
 1711UNK    C0315394  31.094   4.330  13.582 -0.5223 -0.5060 -0.5700
 1711UNK    C0415395  31.173   4.383  13.467 -0.2701  0.3920 -0.4553
 1711UNK    F0515396  31.306   4.350  13.458  0.3404  0.3433  0.2135
 1711UNK    F0615397  31.117   4.360  13.348 -0.2104  0.2701 -0.2004
 1711UNK    F0715398  31.177   4.519  13.483  0.2859  0.2611 -0.3509
 1711UNK    H0815399  31.151   4.256  13.636  1.5277  0.7296 -0.9887
 1712UNK    F0015400  46.808   0.441  11.485  0.1578  0.1884  0.0270
 1712UNK    C0115401  46.740   0.530  11.414  0.0775 -0.0646 -0.3161
 1712UNK    H0215402  46.783   0.538  11.314  1.6580 -0.9401  0.2747
 1712UNK    C0315403  46.686   0.630  11.480  0.0596 -0.8588  0.4662
 1712UNK    C0415404  46.568   0.704  11.434  0.1554  0.2348  0.7935
 1712UNK    F0515405  46.586   0.837  11.449  0.3348  0.0161 -0.0222
 1712UNK    F0615406  46.544   0.675  11.303  0.3776  0.1688  0.0729
 1712UNK    F0715407  46.461   0.660  11.506 -0.1095 -0.5870  0.1636
 1712UNK    H0815408  46.702   0.639  11.587 -1.2181  0.4448  0.5621
 1713UNK    F0015409  38.718   2.527   4.112  0.3425 -0.0792 -0.0374
 1713UNK    C0115410  38.758   2.443   4.013 -0.4420 -0.2410  0.1236
 1713UNK    H0215411  38.697   2.450   3.923 -1.1785 -1.4451  0.5198
 1713UNK    C0315412  38.867   2.370   4.033 -0.0114  0.0296  0.3508
 1713UNK    C0415413  38.956   2.323   3.928 -0.0597 -0.2964  0.6681
 1713UNK    F0515414  39.029   2.222   3.977 -0.0098 -0.3258 -0.4796
 1713UNK    F0615415  38.882   2.293   3.820  0.0878 -0.1034 -0.0961
 1713UNK    F0715416  39.040   2.417   3.876  0.0573 -0.3050 -0.3623
 1713UNK    H0815417  38.901   2.348   4.133  0.7955 -3.3742 -0.6114
 1714UNK    F0015418  39.667   1.800   4.418  0.4591 -0.0549  0.0032
 1714UNK    C0115419  39.660   1.730   4.303  0.2635  0.8353 -0.1693
 1714UNK    H0215420  39.570   1.758   4.247 -0.6244  0.7042  1.1864
 1714UNK    C0315421  39.762   1.665   4.260  0.0636 -0.0359 -0.0689
 1714UNK    C0415422  39.820   1.543   4.309 -0.5734  1.0800 -0.1578
 1714UNK    F0515423  39.814   1.529   4.443  0.2008 -0.0582  0.3121
 1714UNK    F0615424  39.773   1.426   4.256  0.2770 -0.2363  0.0962
 1714UNK    F0715425  39.947   1.549   4.271  0.0964  0.0662 -0.1340
 1714UNK    H0815426  39.807   1.678   4.162 -2.1557  0.8947 -0.9952
 1715UNK    F0015427  16.567   0.728   3.284  0.2143 -0.1245  0.3122
 1715UNK    C0115428  16.448   0.795   3.303  0.0238  0.1341  0.5670
 1715UNK    H0215429  16.427   0.795   3.410  1.5055 -0.5149  0.8745
 1715UNK    C0315430  16.368   0.798   3.198 -0.0164  0.1501  0.9258
 1715UNK    C0415431  16.272   0.689   3.165 -0.4740 -0.1011  0.8354
 1715UNK    F0515432  16.310   0.572   3.195 -0.0391 -0.4346  0.6625
 1715UNK    F0615433  16.163   0.708   3.248  0.1606  0.1300 -0.3699
 1715UNK    F0715434  16.235   0.700   3.035  0.1910  0.4732  0.0662
 1715UNK    H0815435  16.355   0.894   3.150 -1.0148  0.5615  1.9977
 1716UNK    F0015436   5.964   0.674   0.842 -0.1857  0.0756  0.0906
 1716UNK    C0115437   5.930   0.748   0.739  1.0212  0.0554  0.1969
 1716UNK    H0215438   5.857   0.704   0.670  1.9943 -3.3802  1.2405
 1716UNK    C0315439   5.985   0.868   0.738  0.9803  0.1398 -0.0791
 1716UNK    C0415440   5.922   0.980   0.662  0.7294  0.0210  0.7174
 1716UNK    F0515441   5.831   1.042   0.735  0.0081  0.1682  0.8810
 1716UNK    F0615442   6.020   1.056   0.622  1.2529  0.3100 -0.2243
 1716UNK    F0715443   5.855   0.933   0.555 -0.1542 -0.1266 -0.0363
 1716UNK    H0815444   6.082   0.882   0.783  2.2066 -0.9479 -2.2495
 1717UNK    F0015445  34.860   3.455   5.132  0.3526  0.2809 -0.0522
 1717UNK    C0115446  34.970   3.509   5.180 -1.1139  0.7343  0.0991
 1717UNK    H0215447  35.000   3.451   5.267  0.3021  0.6819 -0.4173
 1717UNK    C0315448  35.050   3.581   5.101 -0.3298 -0.1928 -0.3791
 1717UNK    C0415449  35.192   3.597   5.144 -1.4028  0.2338  0.1277
 1717UNK    F0515450  35.199   3.623   5.279 -0.4189  0.0015  0.7838
 1717UNK    F0615451  35.289   3.500   5.126  0.0031 -0.6720  0.2084
 1717UNK    F0715452  35.241   3.713   5.095  0.3897  0.0813  0.5110
 1717UNK    H0815453  35.017   3.617   5.005 -2.3886  1.1642  0.8164
 1718UNK    F0015454  10.838   3.327   1.732  0.0333  0.3201 -0.4595
 1718UNK    C0115455  10.900   3.332   1.847 -0.3570 -0.0667 -0.1452
 1718UNK    H0215456  10.886   3.241   1.905 -0.9846 -0.1541 -0.4240
 1718UNK    C0315457  10.938   3.443   1.902  0.1534 -1.0039 -0.3204
 1718UNK    C0415458  11.039   3.449   2.007 -0.3416 -0.5649 -0.4225
 1718UNK    F0515459  11.017   3.546   2.100  0.0917 -0.2033 -0.2942
 1718UNK    F0615460  11.044   3.336   2.086 -0.0568 -0.0315 -0.4325
 1718UNK    F0715461  11.169   3.465   1.967  0.4861 -0.1388 -0.0692
 1718UNK    H0815462  10.880   3.530   1.878  1.8404 -0.2642 -1.8492
 1719UNK    F0015463  14.344   2.973   7.825 -0.0042 -0.2102 -0.0560
 1719UNK    C0115464  14.304   3.091   7.771  0.0301  0.3488  0.0535
 1719UNK    H0215465  14.330   3.107   7.666  0.3089  0.6890  0.1726
 1719UNK    C0315466  14.199   3.152   7.834  0.2722  0.2755 -0.2777
 1719UNK    C0415467  14.110   3.248   7.771  0.4769 -0.3035  0.6588
 1719UNK    F0515468  14.183   3.334   7.700  0.2610 -0.4460  0.6824
 1719UNK    F0615469  14.027   3.191   7.677 -0.4257 -0.3959  0.0389
 1719UNK    F0715470  14.031   3.315   7.856  0.2353  0.0830 -0.1847
 1719UNK    H0815471  14.140   3.103   7.911 -1.0086  0.4555 -1.1295
 1720UNK    F0015472  48.056   2.773   5.702 -0.5946 -0.1325  0.2598
 1720UNK    C0115473  48.006   2.685   5.791  0.2156 -0.1703 -0.1205
 1720UNK    H0215474  48.082   2.635   5.851  0.0565  0.1010  0.3081
 1720UNK    C0315475  47.907   2.736   5.864 -0.4937 -1.0538  0.4288
 1720UNK    C0415476  47.834   2.657   5.962  0.0398 -0.3554 -0.7754
 1720UNK    F0515477  47.839   2.531   5.913  0.6591 -0.0217  0.1804
 1720UNK    F0615478  47.880   2.652   6.089 -0.4814  0.3717 -0.0561
 1720UNK    F0715479  47.706   2.708   5.960 -0.2854  0.3173 -0.1689
 1720UNK    H0815480  47.854   2.821   5.825  2.3075 -0.3689 -2.0434
 1721UNK    F0015481  21.685   5.225   5.125 -0.2478  0.1480  0.6291
 1721UNK    C0115482  21.598   5.322   5.093 -0.5349 -0.3308  0.3857
 1721UNK    H0215483  21.521   5.288   5.024  0.7472 -2.9313  0.1841
 1721UNK    C0315484  21.576   5.418   5.175  0.0693  0.4696 -0.7159
 1721UNK    C0415485  21.655   5.543   5.181 -1.1865 -0.5337  0.2450
 1721UNK    F0515486  21.605   5.628   5.283 -0.0633  0.0293  0.3089
 1721UNK    F0615487  21.790   5.535   5.196  0.5164 -0.1512  0.6621
 1721UNK    F0715488  21.648   5.615   5.063 -0.3619 -0.3171  0.2268
 1721UNK    H0815489  21.526   5.391   5.267 -0.0621 -0.3331 -1.0187
 1722UNK    F0015490  43.449   4.426  10.241 -0.4113  0.2597 -0.0127
 1722UNK    C0115491  43.332   4.467  10.197  0.2602 -1.2481  0.6815
 1722UNK    H0215492  43.261   4.482  10.278  1.4217  1.6907  1.2281
 1722UNK    C0315493  43.331   4.513  10.071  0.4430  0.6065  0.2102
 1722UNK    C0415494  43.410   4.630  10.034  0.4389 -0.8553 -0.3509
 1722UNK    F0515495  43.335   4.740  10.004  0.0884 -0.2523 -0.5591
 1722UNK    F0615496  43.508   4.671  10.127  0.3483  0.8053  0.3847
 1722UNK    F0715497  43.473   4.608   9.914 -0.0678  0.3644  0.6614
 1722UNK    H0815498  43.280   4.462   9.990 -0.0684 -0.7671  1.3659
 1723UNK    F0015499  16.717   3.103   0.391  0.6244  0.0386 -0.0097
 1723UNK    C0115500  16.773   3.111   0.512 -0.3579  0.1706  0.1780
 1723UNK    H0215501  16.761   3.209   0.559  1.1481  0.2050  0.5035
 1723UNK    C0315502  16.829   3.006   0.563  0.5401 -0.2222 -0.1018
 1723UNK    C0415503  16.836   2.979   0.710  0.1415 -0.4103 -0.1783
 1723UNK    F0515504  16.915   2.873   0.736 -0.0303  0.0128  0.0924
 1723UNK    F0615505  16.894   3.086   0.773  0.5777  0.4596 -0.3110
 1723UNK    F0715506  16.707   2.968   0.748 -0.0593  0.0548  0.3066
 1723UNK    H0815507  16.905   2.958   0.502  0.0083 -1.1101 -0.0783
 1724UNK    F0015508  32.532   4.446  13.689  0.5634  0.4768  0.0420
 1724UNK    C0115509  32.490   4.525  13.788 -0.3768 -0.0003 -0.2819
 1724UNK    H0215510  32.456   4.623  13.755 -2.8513 -1.7554 -3.2365
 1724UNK    C0315511  32.468   4.459  13.901 -0.1222 -0.3379  1.0672
 1724UNK    C0415512  32.397   4.511  14.014 -0.2031 -0.2793 -0.0363
 1724UNK    F0515513  32.266   4.506  13.990 -0.3070  0.3951  0.3679
 1724UNK    F0615514  32.415   4.447  14.129 -0.6826 -0.3217  0.2304
 1724UNK    F0715515  32.430   4.641  14.033  0.3034  0.3895 -0.1454
 1724UNK    H0815516  32.477   4.352  13.901 -0.8001 -0.4415 -1.5465
 1725UNK    F0015517  51.212   3.249  10.968  0.2033 -0.1387  0.4554
 1725UNK    C0115518  51.339   3.272  10.986 -1.0250  0.5682 -0.8310
 1725UNK    H0215519  51.385   3.181  11.024 -0.8899  1.4423  1.1394
 1725UNK    C0315520  51.413   3.372  10.932  0.7774  0.5918  0.9950
 1725UNK    C0415521  51.565   3.376  10.928 -0.8081  0.5690 -0.4483
 1725UNK    F0515522  51.613   3.394  11.054  0.0747  0.4402  0.3426
 1725UNK    F0615523  51.605   3.248  10.895  0.1533 -0.6095 -0.5564
 1725UNK    F0715524  51.618   3.476  10.838  0.8587  0.1190 -0.5091
 1725UNK    H0815525  51.375   3.473  10.934  0.1318  0.4621 -2.4368
 1726UNK    F0015526  41.166   0.448   9.449  0.7101  0.9872 -0.8425
 1726UNK    C0115527  41.114   0.415   9.335  0.6454  0.0411  0.4415
 1726UNK    H0215528  41.007   0.435   9.329  0.2777 -1.9395  0.1790
 1726UNK    C0315529  41.202   0.422   9.235  0.1365 -0.3272  0.0864
 1726UNK    C0415530  41.171   0.421   9.095  0.1212  0.4781 -0.3397
 1726UNK    F0515531  41.160   0.303   9.036  0.3692 -0.5572 -0.6035
 1726UNK    F0615532  41.057   0.485   9.068 -0.5328 -0.2479  0.4968
 1726UNK    F0715533  41.266   0.484   9.033 -0.1003  0.5239  0.0485
 1726UNK    H0815534  41.306   0.428   9.264 -0.0450  0.6065  0.5849
 1727UNK    F0015535  45.524   4.128   4.122  0.5506  0.6630 -0.1121
 1727UNK    C0115536  45.477   4.006   4.141  0.5494  0.3179 -0.0787
 1727UNK    H0215537  45.373   4.012   4.112  0.1598  1.4385  1.4504
 1727UNK    C0315538  45.561   3.908   4.143 -0.4836 -0.0757 -0.5456
 1727UNK    C0415539  45.530   3.765   4.127  0.1632  0.1387  0.1935
 1727UNK    F0515540  45.614   3.678   4.189  0.0905  0.2761 -0.3366
 1727UNK    F0615541  45.409   3.738   4.182  0.0725  0.1795  0.3595
 1727UNK    F0715542  45.511   3.735   4.001  0.1392  0.1277 -0.2483
 1727UNK    H0815543  45.665   3.928   4.167 -0.2758 -1.6097 -0.1604
 1728UNK    F0015544  33.298   0.497  13.621 -0.0371 -0.4520 -0.2712
 1728UNK    C0115545  33.257   0.381  13.572 -0.0354  0.3892  1.3965
 1728UNK    H0215546  33.149   0.384  13.553  0.0734  1.6278  0.9360
 1728UNK    C0315547  33.330   0.274  13.590 -0.0972 -0.4674  0.0639
 1728UNK    C0415548  33.299   0.182  13.702  0.4624 -0.5251  0.1842
 1728UNK    F0515549  33.397   0.096  13.736 -0.3408 -0.4349 -0.3673
 1728UNK    F0615550  33.262   0.251  13.807 -0.4216  0.3297 -0.2365
 1728UNK    F0715551  33.184   0.112  13.670 -0.4509  0.1928  0.6347
 1728UNK    H0815552  33.379   0.223  13.508  0.0765 -0.1446 -0.0327
 1729UNK    F0015553   7.311   3.586  14.138  0.5266 -0.3621  0.3296
 1729UNK    C0115554   7.298   3.618  14.266 -0.0343 -0.2097  1.0151
 1729UNK    H0215555   7.360   3.552  14.325 -1.5273 -1.4733  1.2044
 1729UNK    C0315556   7.204   3.701  14.297 -0.1483  0.1677 -0.5221
 1729UNK    C0415557   7.184   3.762  14.430 -0.3333 -0.2150 -0.7812
 1729UNK    F0515558   7.279   3.843  14.468 -0.1648 -0.2315 -0.2260
 1729UNK    F0615559   7.064   3.823  14.441 -0.2388 -0.2619 -0.2225
 1729UNK    F0715560   7.177   3.670  14.520  0.1857  0.2604 -0.2824
 1729UNK    H0815561   7.123   3.705  14.226 -1.4626 -0.6071  0.9095
 1730UNK    F0015562  28.885   3.567   5.911  0.1160  0.3862 -0.2946
 1730UNK    C0115563  29.005   3.632   5.927  0.0373 -0.3516  0.6314
 1730UNK    H0215564  29.061   3.631   5.834 -1.6396 -0.4820 -0.3891
 1730UNK    C0315565  29.029   3.708   6.031 -0.7520  1.1013  0.0588
 1730UNK    C0415566  28.934   3.800   6.092 -0.1963  0.1544 -0.5258
 1730UNK    F0515567  28.854   3.864   5.999 -0.1348 -0.2371 -0.0780
 1730UNK    F0615568  28.848   3.741   6.175 -0.0949 -0.3475 -0.5815
 1730UNK    F0715569  28.997   3.887   6.175  0.2593  0.2358  0.2298
 1730UNK    H0815570  29.128   3.705   6.074  0.5243 -0.2805 -2.7905
 1731UNK    F0015571   8.552   0.913   5.654 -0.3400 -0.5529 -0.1824
 1731UNK    C0115572   8.459   0.987   5.584  0.2012  0.7438 -0.1712
 1731UNK    H0215573   8.465   1.092   5.613  2.9458  0.3950  0.7445
 1731UNK    C0315574   8.378   0.925   5.502  0.2021  0.5904  1.1642
 1731UNK    C0415575   8.298   0.989   5.394  0.5502  0.6674  0.4824
 1731UNK    F0515576   8.357   0.943   5.279 -0.1086 -0.1562  0.2331
 1731UNK    F0615577   8.168   0.951   5.398 -0.1472  0.0603 -0.5728
 1731UNK    F0715578   8.311   1.131   5.400 -0.6455 -0.4261  0.4621
 1731UNK    H0815579   8.416   0.827   5.476  1.1669  0.9342  1.2780
 1732UNK    F0015580  39.973   2.052  11.309  0.2408  0.7823  0.0677
 1732UNK    C0115581  39.973   1.969  11.206 -0.7193 -1.2684  0.0583
 1732UNK    H0215582  39.902   2.000  11.129 -2.2266 -0.4703  1.7246
 1732UNK    C0315583  40.076   1.890  11.198  0.6456 -0.2200 -0.2239
 1732UNK    C0415584  40.133   1.825  11.084 -0.1775 -0.8941 -0.4165
 1732UNK    F0515585  40.232   1.741  11.105 -0.2443 -0.3367  0.0593
 1732UNK    F0615586  40.038   1.747  11.025 -0.2881  0.2024  0.2287
 1732UNK    F0715587  40.180   1.920  11.006 -0.2608 -0.6249  0.4784
 1732UNK    H0815588  40.136   1.874  11.286 -0.4532 -2.4550  0.1508
 1733UNK    F0015589  15.640   1.815   4.949  0.0897  0.1497 -0.1105
 1733UNK    C0115590  15.570   1.753   5.043  0.3582 -0.6132  0.2111
 1733UNK    H0215591  15.487   1.809   5.085  0.3002 -0.9971  0.6212
 1733UNK    C0315592  15.591   1.621   5.066 -0.3338  0.0903  0.8482
 1733UNK    C0415593  15.489   1.537   5.132  0.1737  0.8516 -0.0101
 1733UNK    F0515594  15.376   1.518   5.066  0.2949 -0.1224 -0.4409
 1733UNK    F0615595  15.535   1.412   5.153  0.1986 -0.8525 -0.1974
 1733UNK    F0715596  15.471   1.587   5.258 -0.2398  0.1236  0.2729
 1733UNK    H0815597  15.693   1.596   5.090 -0.6157  0.1614  2.1637
 1734UNK    F0015598  38.152   3.720  12.982 -0.2114  0.2164 -0.9574
 1734UNK    C0115599  38.204   3.674  12.870 -0.7068  0.0052 -0.4618
 1734UNK    H0215600  38.233   3.746  12.794  1.2248  1.6116  1.7272
 1734UNK    C0315601  38.214   3.539  12.863  0.0286 -0.0317  0.0531
 1734UNK    C0415602  38.281   3.460  12.755 -0.0932 -0.3869  0.2030
 1734UNK    F0515603  38.204   3.352  12.723 -0.6363 -0.4650 -0.0314
 1734UNK    F0615604  38.284   3.542  12.640 -0.0555  0.0305 -1.3085
 1734UNK    F0715605  38.407   3.449  12.789  0.0724  0.1115  0.8028
 1734UNK    H0815606  38.175   3.482  12.947  0.1892  1.2963  1.0546
 1735UNK    F0015607  40.284   4.310  13.597  0.1880 -0.2375  0.3377
 1735UNK    C0115608  40.342   4.192  13.565  0.1650  0.0912 -0.7804
 1735UNK    H0215609  40.373   4.190  13.460  2.1029 -1.2565 -0.2151
 1735UNK    C0315610  40.388   4.109  13.658  0.2397 -0.1028  0.2382
 1735UNK    C0415611  40.481   3.991  13.655 -0.4625 -0.5288 -0.2049
 1735UNK    F0515612  40.497   3.934  13.532 -0.3613 -0.1405 -0.2084
 1735UNK    F0615613  40.602   4.033  13.696 -0.6089  0.4241  0.4208
 1735UNK    F0715614  40.456   3.888  13.742 -0.2492 -0.0973 -0.1161
 1735UNK    H0815615  40.309   4.091  13.729  0.0623 -1.2719 -0.2364
 1736UNK    F0015616  51.525   3.296   7.844  0.3839  0.0950 -0.5958
 1736UNK    C0115617  51.437   3.387   7.813 -0.0696 -0.2971  0.3815
 1736UNK    H0215618  51.485   3.484   7.812 -0.8095  0.0683 -0.8342
 1736UNK    C0315619  51.308   3.359   7.821 -0.0016 -0.2432  0.1838
 1736UNK    C0415620  51.213   3.344   7.932 -0.4744 -0.4434  0.1127
 1736UNK    F0515621  51.168   3.469   7.966  0.3104  0.4901 -0.0122
 1736UNK    F0615622  51.105   3.263   7.919  1.0235 -0.5118  0.3988
 1736UNK    F0715623  51.261   3.290   8.047  0.0411  0.4507  0.4051
 1736UNK    H0815624  51.253   3.363   7.728 -2.1905 -0.7826  1.4214
 1737UNK    F0015625   7.021   2.186   9.886  0.0772  0.0531  0.1146
 1737UNK    C0115626   7.112   2.241   9.960 -0.0834 -0.0498 -0.1296
 1737UNK    H0215627   7.207   2.242   9.906  1.2788 -0.5272  2.1791
 1737UNK    C0315628   7.096   2.270  10.091 -0.0007  0.6477  0.2399
 1737UNK    C0415629   7.193   2.287  10.201 -0.3307 -0.2625 -0.2442
 1737UNK    F0515630   7.146   2.220  10.308 -0.6415  0.1716  0.0382
 1737UNK    F0615631   7.313   2.224  10.181 -0.4464 -0.0092  0.2812
 1737UNK    F0715632   7.225   2.417  10.213 -0.2215  0.9913  0.1102
 1737UNK    H0815633   6.994   2.249  10.121  0.9784 -4.1160  0.7946
 1738UNK    F0015634  48.057   0.950   5.829  0.1584 -0.2742  0.1045
 1738UNK    C0115635  47.956   0.869   5.795  0.0857 -0.2184  0.0987
 1738UNK    H0215636  47.981   0.767   5.822 -1.1243 -1.1153 -2.0587
 1738UNK    C0315637  47.888   0.904   5.686  0.1612  0.7994  0.2687
 1738UNK    C0415638  47.764   0.844   5.642 -0.4725  0.7290 -0.4993
 1738UNK    F0515639  47.666   0.911   5.700  0.0689  0.6543  0.0987
 1738UNK    F0615640  47.739   0.865   5.511 -0.1517  0.2229  0.0586
 1738UNK    F0715641  47.760   0.711   5.669 -0.0760 -0.0405 -0.1998
 1738UNK    H0815642  47.931   0.971   5.613 -3.9446  0.6986 -2.4406
 1739UNK    F0015643  29.514   2.082   5.814  0.3776  0.1684 -0.2258
 1739UNK    C0115644  29.401   2.023   5.783 -0.0286 -0.5241 -0.0765
 1739UNK    H0215645  29.383   1.936   5.847 -1.5596 -1.5472 -1.8422
 1739UNK    C0315646  29.306   2.098   5.725  0.0907 -0.1157 -0.0180
 1739UNK    C0415647  29.160   2.064   5.721  0.1765  0.5781  0.4924
 1739UNK    F0515648  29.125   1.952   5.658  0.4213  0.4045 -0.4406
 1739UNK    F0615649  29.112   2.064   5.843  0.3587  0.3435 -0.3493
 1739UNK    F0715650  29.090   2.152   5.652 -0.0624  0.2309  0.0483
 1739UNK    H0815651  29.330   2.197   5.691 -0.7744  0.9479  2.3351
 1740UNK    F0015652  10.997   0.430   5.198  0.1529 -0.0177  0.1478
 1740UNK    C0115653  11.062   0.547   5.198  0.8138  0.6111 -0.3341
 1740UNK    H0215654  11.146   0.525   5.264  1.0418  4.8041  0.9411
 1740UNK    C0315655  11.005   0.648   5.132  0.2097  1.1620 -0.4872
 1740UNK    C0415656  10.933   0.754   5.203  0.1487 -0.5791  0.6831
 1740UNK    F0515657  11.027   0.846   5.228 -0.1395  0.3961  0.0332
 1740UNK    F0615658  10.837   0.817   5.131  0.1971 -0.5211 -0.1713
 1740UNK    F0715659  10.882   0.725   5.318  0.2627 -0.7764  0.2479
 1740UNK    H0815660  11.056   0.696   5.050  2.1101 -0.2893 -0.1833
 1741UNK    F0015661  44.663   4.282   0.430 -0.2741  0.0888  0.6732
 1741UNK    C0115662  44.740   4.235   0.531  0.1431 -0.2762  0.3365
 1741UNK    H0215663  44.829   4.297   0.542  0.7453 -1.0936  0.0903
 1741UNK    C0315664  44.698   4.158   0.629 -0.1628  0.2300 -0.1959
 1741UNK    C0415665  44.764   4.159   0.758  0.1965 -0.1996  0.2746
 1741UNK    F0515666  44.895   4.145   0.736 -0.1977 -0.2265 -0.1100
 1741UNK    F0615667  44.753   4.275   0.831 -0.1485  0.0131  0.1447
 1741UNK    F0715668  44.737   4.054   0.837  0.2914 -0.4220 -0.4665
 1741UNK    H0815669  44.645   4.065   0.612 -1.5830  1.5811 -3.7290
 1742UNK    F0015670  28.106   1.970   2.932  0.1798  0.1059 -0.7698
 1742UNK    C0115671  28.199   1.872   2.943 -0.0884  0.6175 -0.7993
 1742UNK    H0215672  28.218   1.821   2.848 -0.6771 -0.3475 -0.4022
 1742UNK    C0315673  28.296   1.867   3.043 -0.3985  1.0901 -0.4114
 1742UNK    C0415674  28.273   1.815   3.177 -0.0624  0.2345  0.6067
 1742UNK    F0515675  28.333   1.888   3.273 -0.1985 -0.0221  0.1736
 1742UNK    F0615676  28.139   1.806   3.210 -0.4837 -0.1639  0.1382
 1742UNK    F0715677  28.306   1.685   3.186 -0.4162  0.1017  0.2069
 1742UNK    H0815678  28.363   1.952   3.050  0.0623  0.6705  0.3331
 1743UNK    F0015679  18.490   3.397   8.867 -0.4428 -0.2467 -0.2093
 1743UNK    C0115680  18.598   3.333   8.826 -0.1592 -0.5596  0.0487
 1743UNK    H0215681  18.688   3.375   8.869 -1.4253  1.9117  0.3595
 1743UNK    C0315682  18.585   3.220   8.752 -0.0855  0.0593 -0.5442
 1743UNK    C0415683  18.505   3.105   8.786  0.6270 -0.3522 -0.5345
 1743UNK    F0515684  18.377   3.122   8.745 -0.2462  0.6151 -0.3020
 1743UNK    F0615685  18.536   2.991   8.726 -0.0423  0.1466 -0.5538
 1743UNK    F0715686  18.517   3.073   8.918  0.2811  0.6456  0.0400
 1743UNK    H0815687  18.636   3.221   8.657  0.2178  0.1511 -0.3828
 1744UNK    F0015688   3.588   4.169   0.275  0.7535  0.9899 -0.4888
 1744UNK    C0115689   3.641   4.211   0.161 -0.1366 -0.6192 -0.0160
 1744UNK    H0215690   3.701   4.137   0.107  0.5052 -1.4830  1.8149
 1744UNK    C0315691   3.624   4.336   0.121  0.1481  0.6060  0.6180
 1744UNK    C0415692   3.592   4.361  -0.021 -0.4404  0.4552 -0.6905
 1744UNK    F0515693   3.457   4.347  -0.020 -0.0365 -0.0628  0.3059
 1744UNK    F0615694   3.626   4.486  -0.066 -0.2171 -0.0782 -0.0442
 1744UNK    F0715695   3.643   4.266  -0.104  0.3982 -0.0953  0.2243
 1744UNK    H0815696   3.579   4.405   0.190 -1.1904 -1.0493  1.4590
 1745UNK    F0015697  32.991   1.893   6.429 -0.4578 -0.0265 -0.1803
 1745UNK    C0115698  32.958   1.968   6.531  0.2512 -0.8390 -0.1123
 1745UNK    H0215699  33.039   1.996   6.598  0.1685  2.2656 -1.2342
 1745UNK    C0315700  32.840   2.029   6.514 -0.2619  0.0819 -0.4897
 1745UNK    C0415701  32.826   2.171   6.550 -0.7930 -0.3698  0.6035
 1745UNK    F0515702  32.859   2.254   6.447  0.5351 -0.5089 -0.0075
 1745UNK    F0615703  32.697   2.196   6.581 -0.3507  0.6473 -0.0332
 1745UNK    F0715704  32.906   2.194   6.662  0.1641  0.0105  0.2908
 1745UNK    H0815705  32.784   2.003   6.425  0.7111 -1.9687 -0.5139
 1746UNK    F0015706   8.442   0.411  14.418  0.4457  0.2717 -0.0578
 1746UNK    C0115707   8.428   0.539  14.387 -0.7395  1.5241  0.1554
 1746UNK    H0215708   8.363   0.555  14.301  0.4598  0.1898 -1.0069
 1746UNK    C0315709   8.497   0.642  14.452 -0.2628 -0.3324 -0.3626
 1746UNK    C0415710   8.646   0.631  14.438 -0.0199 -0.7541 -0.5227
 1746UNK    F0515711   8.687   0.615  14.306 -0.1838 -0.7013  0.4588
 1746UNK    F0615712   8.717   0.745  14.447 -0.6088  0.4058 -0.0529
 1746UNK    F0715713   8.705   0.523  14.507 -0.4281 -0.0716 -0.5586
 1746UNK    H0815714   8.462   0.738  14.418  1.7176 -0.4804 -2.9673
 1747UNK    F0015715   0.913   3.218   9.381  0.1440  0.1371  0.0006
 1747UNK    C0115716   0.780   3.222   9.383  0.3882  0.1686 -0.5531
 1747UNK    H0215717   0.735   3.123   9.386  2.1671 -0.6063  1.1736
 1747UNK    C0315718   0.715   3.338   9.392  0.5491  0.7094  0.4219
 1747UNK    C0415719   0.574   3.341   9.434  0.7488 -0.2392  0.0162
 1747UNK    F0515720   0.529   3.467   9.402 -0.3069  0.0465 -0.2736
 1747UNK    F0615721   0.504   3.253   9.355  0.7351  0.0768 -0.1250
 1747UNK    F0715722   0.558   3.317   9.563 -0.4346 -0.3903 -0.0593
 1747UNK    H0815723   0.773   3.423   9.360 -0.0454  0.6691 -0.8014
 1748UNK    F0015724  24.940   4.655  10.752 -0.1536  0.2688  0.6299
 1748UNK    C0115725  24.893   4.778  10.743  0.0999 -0.1860 -0.7757
 1748UNK    H0215726  24.948   4.833  10.819 -1.9892 -1.1299  1.5068
 1748UNK    C0315727  24.765   4.784  10.702 -0.8656 -0.2743 -0.0997
 1748UNK    C0415728  24.696   4.907  10.662 -0.1782 -0.3108 -0.0827
 1748UNK    F0515729  24.565   4.876  10.649  0.0827  0.0387  0.2841
 1748UNK    F0615730  24.707   5.008  10.749  0.2666 -0.2281 -0.0572
 1748UNK    F0715731  24.749   4.954  10.545  0.4824  0.6902 -0.0953
 1748UNK    H0815732  24.715   4.690  10.684  0.4156 -1.0353  0.1856
 1749UNK    F0015733  20.884   3.013   3.150 -0.2454  0.1755  0.0967
 1749UNK    C0115734  20.860   2.943   3.261  0.2196 -0.2238 -0.7906
 1749UNK    H0215735  20.911   2.849   3.279  1.4052  0.5581  0.0225
 1749UNK    C0315736  20.780   2.988   3.354 -0.3448 -0.2216  0.2913
 1749UNK    C0415737  20.779   2.946   3.495 -0.1841 -0.0654  0.0130
 1749UNK    F0515738  20.861   3.031   3.563  0.0546  0.1945  0.2850
 1749UNK    F0615739  20.659   2.927   3.561 -0.9349 -0.3619 -0.3673
 1749UNK    F0715740  20.845   2.830   3.514 -0.2184  0.5593  0.4197
 1749UNK    H0815741  20.690   3.039   3.320  0.3149  1.4353  0.9661
 1750UNK    F0015742  15.609   1.705  12.109 -0.3980  0.0567  0.3061
 1750UNK    C0115743  15.653   1.626  12.208 -0.0988 -0.3185  0.2562
 1750UNK    H0215744  15.759   1.605  12.195 -0.3730 -1.3039 -0.4414
 1750UNK    C0315745  15.562   1.573  12.294  0.0192 -0.5869  0.1526
 1750UNK    C0415746  15.443   1.644  12.339 -0.7568  0.2144 -0.2242
 1750UNK    F0515747  15.358   1.634  12.237  0.0964 -0.5148  0.2607
 1750UNK    F0615748  15.377   1.606  12.458  0.6386  0.3685  0.3158
 1750UNK    F0715749  15.471   1.781  12.347  0.7594  0.0242  0.2455
 1750UNK    H0815750  15.571   1.480  12.349 -4.7613 -1.4165 -0.2209
 1751UNK    F0015751  41.154   3.202  12.314  0.1250  0.1617  0.3106
 1751UNK    C0115752  41.111   3.221  12.187 -0.0650  0.2909 -0.1266
 1751UNK    H0215753  41.136   3.128  12.137  1.0842 -1.7289  3.9734
 1751UNK    C0315754  41.083   3.348  12.149  0.0083  0.5379  0.1368
 1751UNK    C0415755  40.979   3.371  12.044  0.7940 -0.2778  1.0714
 1751UNK    F0515756  40.999   3.479  11.967 -0.0833 -0.0007 -0.0084
 1751UNK    F0615757  40.984   3.271  11.945  0.2706  0.0105 -0.6397
 1751UNK    F0715758  40.853   3.363  12.090 -0.0878  0.6021 -0.5217
 1751UNK    H0815759  41.066   3.420  12.229  1.7729 -0.8688  1.8396
 1752UNK    F0015760  40.320   0.822   6.362  0.3053  0.0009 -0.1764
 1752UNK    C0115761  40.333   0.715   6.443 -0.3363 -0.0799  0.6976
 1752UNK    H0215762  40.413   0.727   6.516  0.2750  0.5041 -0.0669
 1752UNK    C0315763  40.284   0.596   6.400 -0.1608 -0.1600  0.3813
 1752UNK    C0415764  40.249   0.483   6.485  0.3055 -1.0524 -0.6223
 1752UNK    F0515765  40.242   0.377   6.401 -0.2412  0.1127  0.5334
 1752UNK    F0615766  40.351   0.459   6.567  0.3940  0.4758 -0.1326
 1752UNK    F0715767  40.142   0.501   6.564 -0.1334 -0.0727  0.4650
 1752UNK    H0815768  40.196   0.601   6.337  2.8460  2.2035 -3.9748
 1753UNK    F0015769  37.363   1.651   5.344  0.1062 -0.0086 -0.2280
 1753UNK    C0115770  37.432   1.711   5.247 -0.3087 -0.0772 -0.3458
 1753UNK    H0215771  37.490   1.797   5.279  1.2456 -0.4305 -2.1205
 1753UNK    C0315772  37.421   1.669   5.124  0.4533 -0.7680 -0.1263
 1753UNK    C0415773  37.491   1.737   5.013 -0.1305  0.3763 -0.0253
 1753UNK    F0515774  37.462   1.682   4.892  0.5230 -0.2273 -0.0442
 1753UNK    F0615775  37.450   1.866   5.000  0.0192 -0.2032 -0.0007
 1753UNK    F0715776  37.626   1.741   5.039  1.0746 -0.1840 -0.2767
 1753UNK    H0815777  37.404   1.565   5.102  0.5312 -0.6793 -0.6121
 1754UNK    F0015778  36.346   0.875   9.706 -0.9371  0.0531 -0.0692
 1754UNK    C0115779  36.405   0.770   9.645 -0.0930  0.1566  0.8912
 1754UNK    H0215780  36.334   0.689   9.627 -3.1708  3.0718 -0.7642
 1754UNK    C0315781  36.504   0.794   9.552  0.5061 -0.7808 -0.1076
 1754UNK    C0415782  36.638   0.836   9.595 -0.2010  0.6981 -1.0806
 1754UNK    F0515783  36.627   0.954   9.657 -0.3691  0.3614 -0.1122
 1754UNK    F0615784  36.684   0.744   9.681 -0.3960 -0.4438  0.0462
 1754UNK    F0715785  36.722   0.856   9.487  0.2941  0.5688  0.0020
 1754UNK    H0815786  36.480   0.823   9.450  0.5513 -0.7942 -0.1217
 1755UNK    F0015787  36.757   2.468   1.502 -0.2605  0.9086 -0.4617
 1755UNK    C0115788  36.709   2.585   1.460  0.0793 -0.3100  0.6771
 1755UNK    H0215789  36.632   2.579   1.383  0.2911  1.3041  0.3201
 1755UNK    C0315790  36.722   2.678   1.553 -1.0068  0.0149 -0.5013
 1755UNK    C0415791  36.836   2.775   1.540  0.6357 -0.0021 -1.0134
 1755UNK    F0515792  36.810   2.867   1.443 -0.7409 -0.4824 -0.4360
 1755UNK    F0615793  36.828   2.832   1.662  0.6777 -0.3160 -0.1542
 1755UNK    F0715794  36.966   2.731   1.540 -0.0200 -0.1028 -0.2503
 1755UNK    H0815795  36.656   2.684   1.639  1.1806 -0.8394  1.2629
 1756UNK    F0015796   0.431   4.770   9.164 -0.4148 -0.3612  0.3161
 1756UNK    C0115797   0.474   4.649   9.132 -0.3392  1.0159 -0.2328
 1756UNK    H0215798   0.552   4.639   9.057 -1.7555 -0.4691 -1.5393
 1756UNK    C0315799   0.414   4.555   9.203  0.2741 -0.3337  0.5124
 1756UNK    C0415800   0.451   4.415   9.208  0.0089  1.0811  0.8415
 1756UNK    F0515801   0.391   4.347   9.303  0.0220  0.1557  0.5100
 1756UNK    F0615802   0.436   4.346   9.096  0.0817  0.4557  0.6257
 1756UNK    F0715803   0.580   4.402   9.244  0.0536 -0.1198  0.0071
 1756UNK    H0815804   0.312   4.575   9.232 -0.3379 -1.1814 -1.0100
 1757UNK    F0015805  28.952   0.067   4.397 -0.2068  0.5300  0.1427
 1757UNK    C0115806  28.823   0.084   4.368  0.1359 -0.4659  0.0587
 1757UNK    H0215807  28.781  -0.010   4.402 -0.5746 -0.0506  0.3435
 1757UNK    C0315808  28.763   0.203   4.367 -0.7221  0.2502 -0.0427
 1757UNK    C0415809  28.621   0.210   4.368  0.7752 -0.0690 -0.4072
 1757UNK    F0515810  28.574   0.332   4.337  0.1500  0.5137 -0.4962
 1757UNK    F0615811  28.560   0.134   4.273  0.1638  0.4602 -0.0158
 1757UNK    F0715812  28.583   0.149   4.479  0.1269 -0.1169 -0.1695
 1757UNK    H0815813  28.813   0.299   4.369  0.6880 -0.4895  1.2856
 1758UNK    F0015814  16.589   0.428   7.042 -0.0254  0.0470 -0.5329
 1758UNK    C0115815  16.704   0.368   7.027  0.5884 -0.0130  0.7511
 1758UNK    H0215816  16.767   0.440   6.974  0.1117  0.1788  0.4425
 1758UNK    C0315817  16.723   0.238   7.036  0.3607  0.0856 -0.3967
 1758UNK    C0415818  16.857   0.192   7.051  0.4192 -0.5154  0.3459
 1758UNK    F0515819  16.943   0.252   6.967  0.1215 -0.3828 -0.4321
 1758UNK    F0615820  16.906   0.200   7.178  0.2087  0.0493 -0.3592
 1758UNK    F0715821  16.872   0.061   7.015  0.3513  0.1551  0.4522
 1758UNK    H0815822  16.654   0.167   6.993 -0.4486  0.0625  0.9064
 1759UNK    F0015823  33.783   3.599  14.239  0.4879  0.0797 -0.2588
 1759UNK    C0115824  33.667   3.638  14.284  0.4735  0.2652  0.2639
 1759UNK    H0215825  33.651   3.599  14.384 -5.2477  1.9923  0.2172
 1759UNK    C0315826  33.604   3.736  14.229 -0.6848  0.3079 -0.5769
 1759UNK    C0415827  33.666   3.862  14.191  1.0413 -0.1069  1.3134
 1759UNK    F0515828  33.711   3.852  14.068  0.9519 -0.6514 -0.6191
 1759UNK    F0615829  33.573   3.959  14.202 -0.3511  0.1694 -0.1782
 1759UNK    F0715830  33.769   3.906  14.270 -0.1964 -0.4861  0.1916
 1759UNK    H0815831  33.523   3.710  14.162 -0.3894  0.3571 -0.9536
 1760UNK    F0015832   1.842   3.214  14.507  0.3640  0.1269 -0.1652
 1760UNK    C0115833   1.869   3.118  14.420  0.6294  0.1429 -0.2653
 1760UNK    H0215834   1.817   3.024  14.436  0.7045  0.0396 -0.6320
 1760UNK    C0315835   1.957   3.150  14.326 -0.2125  0.3117  0.2375
 1760UNK    C0415836   1.973   3.094  14.191  0.2663 -0.5039 -0.1903
 1760UNK    F0515837   2.107   3.066  14.181  0.1834  0.7612  0.0997
 1760UNK    F0615838   1.899   2.982  14.173 -0.0941  0.1422  0.1417
 1760UNK    F0715839   1.934   3.184  14.099  0.0906 -0.4472  0.1227
 1760UNK    H0815840   1.988   3.254  14.323 -1.2966  0.5878 -1.7669
 1761UNK    F0015841  40.771   4.485  14.024 -0.0319  0.4337  0.2946
 1761UNK    C0115842  40.769   4.616  13.993 -0.7623  0.4214  0.1764
 1761UNK    H0215843  40.863   4.669  14.010 -1.3291  1.8413 -0.9594
 1761UNK    C0315844  40.658   4.688  14.007  0.3762 -0.7956 -0.4108
 1761UNK    C0415845  40.657   4.822  13.951 -0.4097 -0.4806 -0.1817
 1761UNK    F0515846  40.650   4.806  13.819  0.5920  0.6555 -0.3061
 1761UNK    F0615847  40.536   4.875  13.993  0.7123  0.2295 -0.2186
 1761UNK    F0715848  40.743   4.914  13.994  0.0382 -0.1367  0.0062
 1761UNK    H0815849  40.559   4.645  13.995  0.1310  0.2842 -2.4934
 1762UNK    F0015850   6.518   3.446   9.590  0.5878 -0.4370 -0.0924
 1762UNK    C0115851   6.487   3.320   9.600  0.3289  0.2256  0.4519
 1762UNK    H0215852   6.484   3.282   9.703 -0.9941  1.9286  1.0496
 1762UNK    C0315853   6.434   3.265   9.488  0.4562  0.0053 -0.3720
 1762UNK    C0415854   6.490   3.151   9.414 -0.4361 -0.3699  0.4885
 1762UNK    F0515855   6.458   3.154   9.283 -0.5073  0.1705 -0.0996
 1762UNK    F0615856   6.627   3.148   9.408 -0.0610  0.2207 -0.5016
 1762UNK    F0715857   6.444   3.039   9.466 -0.1832  0.6658 -0.3685
 1762UNK    H0815858   6.382   3.326   9.416  1.5526 -0.2298 -1.3706
 1763UNK    F0015859  37.587   2.181   9.137  0.0962  0.4542  0.4163
 1763UNK    C0115860  37.608   2.310   9.176  0.9091 -0.4983 -0.1826
 1763UNK    H0215861  37.542   2.340   9.258  1.6340  2.9194 -0.7443
 1763UNK    C0315862  37.641   2.386   9.073  0.3047 -0.2213  0.3454
 1763UNK    C0415863  37.703   2.513   9.070  0.3217  0.0419 -0.7741
 1763UNK    F0515864  37.712   2.543   8.941  0.1771 -0.5705  0.7187
 1763UNK    F0615865  37.633   2.617   9.117  0.1797 -0.1400  0.3876
 1763UNK    F0715866  37.816   2.516   9.143  0.7146  0.9021 -0.0316
 1763UNK    H0815867  37.594   2.359   8.980 -1.4004  0.2638  1.0517
 1764UNK    F0015868  46.242   1.088   3.219 -0.2848  0.0531 -0.1382
 1764UNK    C0115869  46.205   1.064   3.341  0.0640 -0.9727 -0.0956
 1764UNK    H0215870  46.107   1.017   3.338  0.2917 -1.5214  0.8924
 1764UNK    C0315871  46.298   1.058   3.441  0.3627 -0.2497  0.7651
 1764UNK    C0415872  46.270   1.017   3.578 -0.4599 -0.2370  0.0303
 1764UNK    F0515873  46.373   1.054   3.653  0.8227 -0.5638  0.3089
 1764UNK    F0615874  46.151   1.055   3.633 -0.0200  0.5504 -0.2028
 1764UNK    F0715875  46.252   0.888   3.567 -0.1801  0.2913  0.1769
 1764UNK    H0815876  46.360   1.147   3.435 -2.6213  1.8277 -0.3349
 1765UNK    F0015877  48.130   1.580  12.955  0.2998 -0.7217 -0.7633
 1765UNK    C0115878  48.200   1.605  12.844  0.6000 -0.3628 -0.1440
 1765UNK    H0215879  48.186   1.705  12.803  2.0392 -0.7228 -1.5624
 1765UNK    C0315880  48.287   1.514  12.797  0.1678  0.6125 -0.1029
 1765UNK    C0415881  48.362   1.533  12.668 -0.5896 -0.4966  0.1417
 1765UNK    F0515882  48.437   1.426  12.631  0.6068  0.2439  0.0663
 1765UNK    F0615883  48.279   1.559  12.567 -0.0471 -0.3356 -0.3792
 1765UNK    F0715884  48.440   1.646  12.666  0.1015 -0.4133 -0.3706
 1765UNK    H0815885  48.348   1.458  12.867 -0.3134 -1.0701 -0.9918
 1766UNK    F0015886  46.866   2.306  13.155  0.5036 -0.3958  0.3201
 1766UNK    C0115887  46.933   2.212  13.088 -0.0933  0.0812 -0.3348
 1766UNK    H0215888  46.925   2.237  12.982  0.2334 -0.9777 -0.6187
 1766UNK    C0315889  46.992   2.106  13.138 -0.0073  0.4354 -0.3304
 1766UNK    C0415890  46.916   1.982  13.166  0.2273  0.3045  0.1203
 1766UNK    F0515891  46.973   1.915  13.264 -0.1543 -0.6591 -0.1403
 1766UNK    F0615892  46.804   2.006  13.240 -0.1081  0.2625  0.2722
 1766UNK    F0715893  46.894   1.913  13.055 -0.4717 -0.0713 -0.1128
 1766UNK    H0815894  47.078   2.134  13.197  0.3537  1.4335 -1.3242
 1767UNK    F0015895  33.217   4.101   6.521  0.0734 -0.1491  0.1564
 1767UNK    C0115896  33.324   4.072   6.592  0.1646 -0.6671  0.1083
 1767UNK    H0215897  33.334   3.964   6.600 -0.1316 -0.6506  0.7945
 1767UNK    C0315898  33.369   4.166   6.667 -0.2703 -0.2771 -0.0846
 1767UNK    C0415899  33.514   4.161   6.705  0.1675  0.7931 -0.1232
 1767UNK    F0515900  33.539   4.252   6.798  0.5326  0.2382  0.1299
 1767UNK    F0615901  33.558   4.039   6.737 -0.0074 -0.1007  0.3928
 1767UNK    F0715902  33.597   4.188   6.606 -0.5513  0.7286 -0.2081
 1767UNK    H0815903  33.331   4.263   6.639  0.7128 -0.2169 -1.2544
 1768UNK    F0015904   1.755   1.260  11.053 -0.2304  0.2462  0.5620
 1768UNK    C0115905   1.834   1.227  10.955  0.3204 -0.2608 -0.0248
 1768UNK    H0215906   1.914   1.299  10.935 -0.1257  0.0719 -0.6355
 1768UNK    C0315907   1.810   1.108  10.902  0.1495  0.4884  0.1478
 1768UNK    C0415908   1.922   1.025  10.863  0.1753 -0.1065  0.0516
 1768UNK    F0515909   1.978   1.081  10.753 -0.4128 -0.6850 -0.6624
 1768UNK    F0615910   2.008   1.003  10.961 -0.0777  0.2047 -0.4226
 1768UNK    F0715911   1.869   0.909  10.820  0.0918  0.5553 -0.4200
 1768UNK    H0815912   1.710   1.073  10.885  0.7329 -0.6764 -0.9662
 1769UNK    F0015913  48.129   0.831  11.355 -0.1616 -0.1461  0.2348
 1769UNK    C0115914  48.254   0.877  11.325 -0.2708  0.0022 -0.2697
 1769UNK    H0215915  48.260   0.986  11.325 -0.2631  0.0067 -2.2560
 1769UNK    C0315916  48.346   0.806  11.265 -0.0675  0.7554 -0.8993
 1769UNK    C0415917  48.407   0.865  11.139  1.2849 -0.5980 -0.1358
 1769UNK    F0515918  48.500   0.795  11.089 -0.7052  0.6406  0.1786
 1769UNK    F0615919  48.318   0.898  11.037 -0.4715  0.1065  0.0330
 1769UNK    F0715920  48.447   0.992  11.162 -0.5440 -0.8842 -0.2701
 1769UNK    H0815921  48.315   0.702  11.260 -0.2030  0.8288 -1.5928
 1770UNK    F0015922  44.434   4.080   7.444 -0.1120 -0.2731  0.2429
 1770UNK    C0115923  44.385   4.167   7.526  0.2249  0.4017 -0.2349
 1770UNK    H0215924  44.388   4.120   7.624  1.4846  1.1658  0.1036
 1770UNK    C0315925  44.310   4.265   7.494 -0.1486 -0.7752 -0.3582
 1770UNK    C0415926  44.273   4.374   7.593  0.3010  0.0790  0.0904
 1770UNK    F0515927  44.222   4.310   7.707  0.0660 -0.1151  0.1061
 1770UNK    F0615928  44.373   4.456   7.644 -0.3608 -0.3368 -0.4757
 1770UNK    F0715929  44.172   4.453   7.536 -0.2161  0.1624  0.0102
 1770UNK    H0815930  44.256   4.264   7.401 -0.5154 -2.1661 -0.1400
 1771UNK    F0015931  22.211   0.770   1.101 -0.0344 -0.0609  0.4489
 1771UNK    C0115932  22.257   0.824   0.990  0.0506  0.1194  0.3954
 1771UNK    H0215933  22.183   0.830   0.910 -0.5259  1.9384  1.0241
 1771UNK    C0315934  22.359   0.911   0.990  0.4254 -0.4135 -0.5262
 1771UNK    C0415935  22.398   1.002   0.881 -0.1780 -0.7223 -0.3420
 1771UNK    F0515936  22.504   1.076   0.924  0.8843 -0.0786 -0.2246
 1771UNK    F0615937  22.417   0.938   0.762 -0.1233  0.1403  0.0778
 1771UNK    F0715938  22.303   1.088   0.861  0.0406  0.4211 -0.4588
 1771UNK    H0815939  22.401   0.950   1.081 -0.4588  0.9632 -0.6928
 1772UNK    F0015940  51.725   0.502   7.655 -0.1789 -0.0914 -0.3211
 1772UNK    C0115941  51.794   0.607   7.693  0.5121  0.4982  0.3181
 1772UNK    H0215942  51.791   0.634   7.799 -0.1863  0.3303  0.3428
 1772UNK    C0315943  51.889   0.640   7.604  1.2250  0.0202 -0.1221
 1772UNK    C0415944  52.005   0.719   7.638  0.2667  0.9351 -0.0303
 1772UNK    F0515945  52.049   0.792   7.539 -0.3957 -0.3532 -0.4658
 1772UNK    F0615946  51.983   0.795   7.748 -0.3706  0.3938  0.0839
 1772UNK    F0715947  52.109   0.632   7.667 -0.4323 -0.0303 -0.2537
 1772UNK    H0815948  51.855   0.657   7.502  0.7243  0.2849  0.0870
 1773UNK    F0015949   7.842   3.743   2.505  0.3982  0.3254  0.0247
 1773UNK    C0115950   7.714   3.756   2.531  0.0986 -0.0021  0.3053
 1773UNK    H0215951   7.651   3.753   2.442  1.4767  0.4942 -0.7055
 1773UNK    C0315952   7.680   3.759   2.660 -0.1561 -0.7547  0.3151
 1773UNK    C0415953   7.618   3.880   2.717  0.6056  0.2043  0.0290
 1773UNK    F0515954   7.484   3.893   2.692  0.0920 -0.0384  0.2127
 1773UNK    F0615955   7.633   3.874   2.848  0.6079  0.4410 -0.0066
 1773UNK    F0715956   7.680   3.989   2.675  0.5538 -0.5826 -0.6420
 1773UNK    H0815957   7.635   3.669   2.700 -0.1718  0.4434  3.0994
 1774UNK    F0015958  42.973   3.143  12.206 -0.1688  0.6109  0.1135
 1774UNK    C0115959  42.857   3.084  12.190  0.7000  0.2579  0.2020
 1774UNK    H0215960  42.857   2.975  12.197 -2.7295  0.0697 -1.2258
 1774UNK    C0315961  42.751   3.162  12.183 -0.5840 -0.0055 -0.0408
 1774UNK    C0415962  42.618   3.103  12.202  0.0607 -0.0236 -0.2321
 1774UNK    F0515963  42.604   3.073  12.337 -0.2214  0.1794 -0.2228
 1774UNK    F0615964  42.530   3.197  12.166  0.1136  0.2623 -0.3715
 1774UNK    F0715965  42.602   2.996  12.127  0.3603 -0.0797  0.1741
 1774UNK    H0815966  42.750   3.266  12.210 -0.5770 -0.4414  1.6989
 1775UNK    F0015967  35.494   0.486  12.930  0.5488 -0.6413 -0.6860
 1775UNK    C0115968  35.392   0.441  12.854  1.4078 -1.0017 -0.0816
 1775UNK    H0215969  35.412   0.450  12.747 -0.4361  0.7850 -0.3236
 1775UNK    C0315970  35.273   0.407  12.909 -0.3791 -0.1392  0.2099
 1775UNK    C0415971  35.216   0.270  12.901 -0.1156  1.2165  0.4926
 1775UNK    F0515972  35.212   0.226  13.030  0.0687 -0.0277  0.6967
 1775UNK    F0615973  35.093   0.280  12.844 -0.4227 -0.5988  0.6355
 1775UNK    F0715974  35.284   0.174  12.826 -0.0882  0.6003 -0.3461
 1775UNK    H0815975  35.234   0.452  12.999 -2.6773 -1.6634  0.0170
 1776UNK    F0015976   0.520   3.579   7.490 -0.2810  0.3958  0.2354
 1776UNK    C0115977   0.605   3.481   7.522  0.6157 -0.3273  0.8385
 1776UNK    H0215978   0.637   3.497   7.625 -0.1588  0.0512  1.0181
 1776UNK    C0315979   0.626   3.376   7.445  0.5053 -0.3347 -0.2366
 1776UNK    C0415980   0.553   3.248   7.437  0.2165  0.4215 -0.3144
 1776UNK    F0515981   0.527   3.199   7.562 -0.0445  0.4436  0.7957
 1776UNK    F0615982   0.439   3.276   7.370 -0.0337 -0.8224 -0.5153
 1776UNK    F0715983   0.622   3.156   7.374 -0.2940  0.3983  0.0349
 1776UNK    H0815984   0.684   3.388   7.355  1.4944  2.0490  0.6786
 1777UNK    F0015985   8.457   4.488  10.419  0.4406  0.2360  0.0792
 1777UNK    C0115986   8.514   4.483  10.541  0.1118 -0.2683 -0.3167
 1777UNK    H0215987   8.451   4.500  10.629  0.1402  0.9945 -0.5245
 1777UNK    C0315988   8.634   4.439  10.554  0.2664 -0.3030  0.0410
 1777UNK    C0415989   8.748   4.531  10.542  0.4872  0.5765 -0.2950
 1777UNK    F0515990   8.780   4.605  10.648 -0.0658  0.4898  0.3141
 1777UNK    F0615991   8.851   4.462  10.496 -0.1916  0.1968  0.4077
 1777UNK    F0715992   8.730   4.620  10.444 -0.1078 -0.8713 -0.3849
 1777UNK    H0815993   8.649   4.352  10.616  2.9151 -0.8796 -1.2916
 1778UNK    F0015994  35.024   3.749  13.929 -0.6972 -0.2312 -0.2676
 1778UNK    C0115995  34.935   3.730  13.831 -0.0126  0.3735  0.6060
 1778UNK    H0215996  34.975   3.650  13.770  0.2815  1.2868 -0.4149
 1778UNK    C0315997  34.814   3.788  13.827 -0.2102  0.1655  0.4898
 1778UNK    C0415998  34.748   3.844  13.943  0.0836 -0.2780 -0.7285
 1778UNK    F0515999  34.791   3.957  13.985 -0.1550 -0.3237 -0.0446
 1778UNK    F0616000  34.616   3.859  13.920  0.4389 -0.1379  0.2158
 1778UNK    F0716001  34.767   3.757  14.047 -0.0912 -0.4032 -0.5769
 1778UNK    H0816002  34.771   3.834  13.739  2.8998 -4.2866 -3.6182
 1779UNK    F0016003  48.051   0.441   5.469 -0.1375 -0.5370  0.0514
 1779UNK    C0116004  48.173   0.429   5.412 -0.3917 -0.2686  0.4388
 1779UNK    H0216005  48.155   0.386   5.314 -1.3486 -0.3000  0.6298
 1779UNK    C0316006  48.274   0.384   5.493 -0.4923 -0.2839 -0.4690
 1779UNK    C0416007  48.328   0.245   5.488 -0.4221  0.1800 -0.1547
 1779UNK    F0516008  48.240   0.148   5.471 -0.2469 -0.2063 -0.0476
 1779UNK    F0616009  48.405   0.236   5.378 -0.0291 -0.1041  0.0003
 1779UNK    F0716010  48.411   0.223   5.596 -0.4451 -0.5298  0.0423
 1779UNK    H0816011  48.354   0.456   5.505 -1.6157  0.4941  3.0671
 1780UNK    F0016012  16.576   4.408   9.388 -0.4519 -0.1113  0.4585
 1780UNK    C0116013  16.645   4.324   9.304 -0.1375 -0.3671 -0.5565
 1780UNK    H0216014  16.617   4.220   9.324  1.3134 -0.4444  1.1653
 1780UNK    C0316015  16.708   4.385   9.199 -0.1767  0.5237 -0.5748
 1780UNK    C0416016  16.773   4.312   9.095  0.0591 -0.3339  0.3856
 1780UNK    F0516017  16.861   4.381   9.017  0.6511  0.5153 -0.5833
 1780UNK    F0616018  16.854   4.215   9.133 -0.6806 -0.3402 -0.1632
 1780UNK    F0716019  16.701   4.249   8.997 -1.1779  0.0221  0.8412
 1780UNK    H0816020  16.732   4.490   9.193 -1.3001  0.6147 -4.5557
 1781UNK    F0016021   7.784   1.111   4.359 -0.2649  0.4069 -0.1419
 1781UNK    C0116022   7.681   1.026   4.371  0.6388  0.5916 -0.0614
 1781UNK    H0216023   7.663   0.981   4.274 -0.1781  1.3091 -0.2500
 1781UNK    C0316024   7.589   1.037   4.464  0.3718  0.5775 -0.2568
 1781UNK    C0416025   7.502   1.154   4.478  0.7930  0.0896 -0.1164
 1781UNK    F0516026   7.573   1.267   4.461 -0.6134  0.1327 -0.1423
 1781UNK    F0616027   7.400   1.174   4.391  0.4194 -0.0048  0.1794
 1781UNK    F0716028   7.438   1.156   4.595 -0.3935 -0.5508 -0.0435
 1781UNK    H0816029   7.610   0.995   4.561 -0.7985 -1.1315 -0.7230
 1782UNK    F0016030  24.550   1.878   2.358 -0.2684  0.4677  0.1101
 1782UNK    C0116031  24.546   1.816   2.483  0.1478 -0.5681 -0.1386
 1782UNK    H0216032  24.525   1.895   2.556  0.5513 -1.7314  1.2717
 1782UNK    C0316033  24.574   1.685   2.506  0.8700 -0.4127 -0.1231
 1782UNK    C0416034  24.566   1.641   2.641 -0.8691  0.0053 -0.2183
 1782UNK    F0516035  24.605   1.738   2.724 -0.3929  0.4254 -0.0003
 1782UNK    F0616036  24.449   1.594   2.679  0.1286  0.4989 -0.5805
 1782UNK    F0716037  24.641   1.529   2.670 -0.0254  0.1770  1.2312
 1782UNK    H0816038  24.557   1.609   2.432 -0.2818  0.1811 -0.4755
 1783UNK    F0016039   0.317   4.320  10.016 -0.1405  0.5228  0.0011
 1783UNK    C0116040   0.320   4.454   9.997  0.3909  0.2102 -0.2705
 1783UNK    H0216041   0.333   4.506  10.093  0.8666 -0.1800 -0.1184
 1783UNK    C0316042   0.333   4.508   9.876 -0.6961  0.6196  0.0427
 1783UNK    C0416043   0.431   4.617   9.855 -0.1285  0.4085  0.8549
 1783UNK    F0516044   0.415   4.668   9.734  0.2560  0.0218 -0.2757
 1783UNK    F0616045   0.432   4.722   9.940 -0.1524 -0.4313  0.3940
 1783UNK    F0716046   0.554   4.571   9.859 -0.4257  0.1701 -0.3299
 1783UNK    H0816047   0.316   4.450   9.786 -0.8080 -1.7472  1.5507
 1784UNK    F0016048  16.803   0.536   2.816  0.2484  0.2056  0.0356
 1784UNK    C0116049  16.710   0.447   2.843  0.1987 -0.2583 -0.3129
 1784UNK    H0216050  16.665   0.400   2.756  0.1687 -0.2064 -0.3257
 1784UNK    C0316051  16.665   0.428   2.967  0.3470 -0.5035  0.2635
 1784UNK    C0416052  16.598   0.309   3.021  0.2191 -0.3790 -0.3878
 1784UNK    F0516053  16.695   0.236   3.074  0.3414 -0.0675 -0.1126
 1784UNK    F0616054  16.520   0.354   3.128 -0.1517  0.4374 -0.0411
 1784UNK    F0716055  16.517   0.248   2.920 -0.2556  0.1486 -0.2971
 1784UNK    H0816056  16.714   0.490   3.040  0.2261  0.8992 -0.8281
 1785UNK    F0016057   7.120   2.834  10.910  0.2803 -0.1618 -0.0873
 1785UNK    C0116058   7.054   2.913  10.828  0.3619 -0.2270  0.1655
 1785UNK    H0216059   7.118   2.936  10.743  1.7853  0.0685  1.3156
 1785UNK    C0316060   6.977   3.000  10.894 -0.1183  0.8391 -0.0142
 1785UNK    C0416061   6.863   3.071  10.833 -0.2188  0.2969  0.5302
 1785UNK    F0516062   6.849   3.195  10.884  0.2664 -0.6168 -0.0206
 1785UNK    F0616063   6.888   3.074  10.697  0.0726  0.5536  0.3329
 1785UNK    F0716064   6.743   3.002  10.851 -0.2050  0.2961 -0.0398
 1785UNK    H0816065   7.002   3.024  10.996 -0.5610  3.3158 -0.4613
 1786UNK    F0016066  36.039   2.170  11.721 -0.0769  0.2652 -0.1425
 1786UNK    C0116067  36.160   2.226  11.686  0.4310 -0.2361 -0.1355
 1786UNK    H0216068  36.222   2.141  11.658 -0.1980 -0.3793 -1.0947
 1786UNK    C0316069  36.160   2.359  11.662  0.1669 -0.8836 -0.5635
 1786UNK    C0416070  36.143   2.448  11.770 -0.7760  0.1946 -0.1127
 1786UNK    F0516071  36.137   2.403  11.901  0.3924 -0.4033  0.0574
 1786UNK    F0616072  36.248   2.533  11.770  0.1905 -0.9124 -0.1798
 1786UNK    F0716073  36.026   2.517  11.756  0.0812  0.0502 -0.7281
 1786UNK    H0816074  36.144   2.406  11.567  0.5027 -0.3513 -0.3612
 1787UNK    F0016075  10.869   2.725   2.640 -0.3968 -0.4012  0.0855
 1787UNK    C0116076  10.800   2.708   2.754  0.6291  0.1728 -0.0986
 1787UNK    H0216077  10.769   2.607   2.780  3.6961 -0.7223  0.1784
 1787UNK    C0316078  10.831   2.786   2.855  1.0157  0.6516 -0.1678
 1787UNK    C0416079  10.896   2.738   2.976  0.0394 -0.0438  0.0782
 1787UNK    F0516080  10.877   2.813   3.089 -0.1733  0.1582 -0.8060
 1787UNK    F0616081  10.852   2.613   3.011  0.0898 -0.0017 -0.1340
 1787UNK    F0716082  11.030   2.738   2.954  0.2271  0.1531 -0.3726
 1787UNK    H0816083  10.790   2.886   2.852 -0.8983 -0.1011  0.1497
 1788UNK    F0016084  32.038   4.033  14.385 -0.0674 -0.1587  0.0483
 1788UNK    C0116085  31.984   3.925  14.444 -0.2465  0.6916 -0.4194
 1788UNK    H0216086  31.887   3.894  14.406 -1.3876  0.6880  2.4404
 1788UNK    C0316087  32.061   3.838  14.504 -0.3472  0.3806 -0.4272
 1788UNK    C0416088  32.012   3.710  14.550  0.2382 -0.5025  0.1790
 1788UNK    F0516089  32.103   3.654  14.631  0.0738  0.0997  0.0257
 1788UNK    F0616090  31.899   3.732  14.623 -0.3682 -0.5260 -0.6568
 1788UNK    F0716091  31.996   3.629  14.447  0.2180 -0.0336  0.2106
 1788UNK    H0816092  32.168   3.847  14.495 -0.5248  3.6750  0.3416
 1789UNK    F0016093  39.305   1.767  11.696 -0.0497  0.0698  0.4723
 1789UNK    C0116094  39.253   1.702  11.593  0.0652  0.1938 -0.0705
 1789UNK    H0216095  39.334   1.644  11.549 -0.5117 -2.0601  1.7596
 1789UNK    C0316096  39.136   1.725  11.540  0.1220  0.0669  0.5948
 1789UNK    C0416097  39.113   1.823  11.428 -0.3067  1.1426  0.4627
 1789UNK    F0516098  39.193   1.928  11.426 -0.2319 -0.4193  0.1638
 1789UNK    F0616099  39.126   1.759  11.313  0.5373  0.2315 -0.3688
 1789UNK    F0716100  38.981   1.855  11.434 -0.0956  0.6135  0.0045
 1789UNK    H0816101  39.049   1.691  11.594 -0.3261  1.2122  0.6071
 1790UNK    F0016102   9.334   3.008   4.684  0.0229 -0.0388 -0.6750
 1790UNK    C0116103   9.387   2.889   4.720 -0.5267 -0.3582  0.3049
 1790UNK    H0216104   9.409   2.835   4.627 -0.7680  1.5683 -0.8884
 1790UNK    C0316105   9.448   2.878   4.837  0.3096  0.5467 -0.4438
 1790UNK    C0416106   9.550   2.771   4.856 -0.3938 -0.7088 -0.1280
 1790UNK    F0516107   9.578   2.773   4.994  0.6631  0.4017  0.3031
 1790UNK    F0616108   9.511   2.650   4.815  0.3594 -0.0473 -0.1335
 1790UNK    F0716109   9.673   2.805   4.807  0.1862 -0.2937  0.3313
 1790UNK    H0816110   9.451   2.963   4.903  1.7079  0.2512 -0.1276
 1791UNK    F0016111  17.993   0.338   4.354  0.0691 -0.1975 -0.4373
 1791UNK    C0116112  17.872   0.276   4.378 -0.0516  0.3016  0.5769
 1791UNK    H0216113  17.795   0.352   4.386 -0.0054  0.3403  0.6606
 1791UNK    C0316114  17.874   0.165   4.442 -0.0181  0.7952 -0.4637
 1791UNK    C0416115  17.755   0.083   4.452 -0.2677  0.1353 -0.1373
 1791UNK    F0516116  17.738   0.016   4.333  0.1894 -0.1400  0.2626
 1791UNK    F0616117  17.769  -0.008   4.550 -0.0485  0.1322 -0.2058
 1791UNK    F0716118  17.644   0.160   4.481  0.3849 -0.4536  0.0925
 1791UNK    H0816119  17.957   0.115   4.489 -1.2866 -1.0194 -0.0933
 1792UNK    F0016120  20.911   2.819  11.484  0.5132  0.1427  0.0689
 1792UNK    C0116121  20.824   2.781  11.576  0.0800 -0.9359 -0.0025
 1792UNK    H0216122  20.816   2.673  11.569  2.0144 -1.1111  0.2126
 1792UNK    C0316123  20.793   2.865  11.678  0.5244  0.6535 -0.1364
 1792UNK    C0416124  20.767   2.806  11.806 -0.2348  0.1183 -0.0872
 1792UNK    F0516125  20.886   2.784  11.867 -0.3073 -1.0948 -0.3410
 1792UNK    F0616126  20.711   2.887  11.905 -0.2135  0.9240 -0.9170
 1792UNK    F0716127  20.685   2.695  11.800 -0.0418 -0.2120  0.1667
 1792UNK    H0816128  20.809   2.972  11.671 -0.5075  0.6246 -3.9681
 1793UNK    F0016129  39.549   5.092   7.931  0.5641 -0.3222  0.6884
 1793UNK    C0116130  39.584   4.965   7.896  0.1753 -0.6031  0.6912
 1793UNK    H0216131  39.503   4.925   7.834 -1.9410  0.6083  2.5890
 1793UNK    C0316132  39.685   4.901   7.949  0.1385  0.2421 -0.5532
 1793UNK    C0416133  39.738   4.776   7.893 -0.3560  0.8561 -0.4320
 1793UNK    F0516134  39.792   4.694   7.990  0.1213 -0.0452  0.0822
 1793UNK    F0616135  39.629   4.705   7.847  0.1710  0.0213 -0.1732
 1793UNK    F0716136  39.825   4.782   7.785 -0.2211  0.5971 -0.0297
 1793UNK    H0816137  39.695   4.914   8.056  2.5358  0.6778 -0.8097
 1794UNK    F0016138   6.741   1.380  10.275 -0.1944  0.1681 -0.4085
 1794UNK    C0116139   6.795   1.273  10.345  0.0789 -0.6092 -0.2978
 1794UNK    H0216140   6.866   1.307  10.420 -1.2846  3.1621 -0.6110
 1794UNK    C0316141   6.764   1.148  10.304 -0.3253 -0.5019 -0.0885
 1794UNK    C0416142   6.771   1.028  10.387 -0.4357 -0.4634  0.3431
 1794UNK    F0516143   6.763   0.921  10.304  0.6023  0.5007 -0.2574
 1794UNK    F0616144   6.887   1.019  10.459  0.4023  0.6058  0.2693
 1794UNK    F0716145   6.667   1.024  10.476  0.3585 -0.3328  0.4979
 1794UNK    H0816146   6.771   1.119  10.200  2.0756 -0.3547  0.0009
 1795UNK    F0016147  24.979   2.068   3.650  0.1264 -0.3430 -0.4231
 1795UNK    C0116148  24.905   2.015   3.746 -0.3133 -0.1981 -0.3412
 1795UNK    H0216149  24.891   1.911   3.716 -0.2197 -0.4282  0.4026
 1795UNK    C0316150  24.850   2.086   3.840  0.3206 -0.4156 -0.1810
 1795UNK    C0416151  24.818   2.028   3.971 -0.4668  0.3399 -0.2218
 1795UNK    F0516152  24.765   1.906   3.984 -0.0568  0.4671 -0.3240
 1795UNK    F0616153  24.935   2.014   4.039 -0.0892 -0.5039 -0.2918
 1795UNK    F0716154  24.740   2.115   4.042 -0.0721 -0.1359  0.1203
 1795UNK    H0816155  24.824   2.190   3.823  0.1191 -0.8654 -2.8322
 1796UNK    F0016156  21.021   4.714  11.702  0.0859 -0.2333 -0.4605
 1796UNK    C0116157  21.096   4.823  11.675  0.0186  0.8563 -0.7740
 1796UNK    H0216158  21.194   4.812  11.722 -1.1731 -5.4201  0.7358
 1796UNK    C0316159  21.038   4.938  11.646  0.9503 -0.7331 -0.8629
 1796UNK    C0416160  21.112   5.052  11.592  0.9662 -0.0585  0.4926
 1796UNK    F0516161  21.229   5.075  11.655  0.0600  0.7957  0.0871
 1796UNK    F0616162  21.131   5.040  11.464 -0.2809 -0.1276  0.4456
 1796UNK    F0716163  21.034   5.159  11.592  0.0365 -0.7013 -0.4256
 1796UNK    H0816164  20.935   4.930  11.617  0.8048  2.2039 -1.2935
 1797UNK    F0016165  46.443   2.494   5.102 -0.6384 -0.4346 -0.4408
 1797UNK    C0116166  46.355   2.438   5.017 -0.5552  0.4131 -0.0695
 1797UNK    H0216167  46.266   2.403   5.068  0.5611  0.9020  2.2707
 1797UNK    C0316168  46.365   2.477   4.890 -0.0913  0.6630  0.2249
 1797UNK    C0416169  46.250   2.449   4.797  0.1513 -0.6866 -0.2052
 1797UNK    F0516170  46.143   2.492   4.866  0.3549  0.3551  0.6791
 1797UNK    F0616171  46.255   2.513   4.684 -0.1666 -0.0702  0.2424
 1797UNK    F0716172  46.242   2.317   4.769 -0.7290 -0.2540  0.3186
 1797UNK    H0816173  46.429   2.562   4.872  0.9574 -0.6839 -2.6469
 1798UNK    F0016174  15.559   0.169   4.671  0.5034  0.3627  0.1174
 1798UNK    C0116175  15.639   0.195   4.566  0.0222 -0.9104 -0.1623
 1798UNK    H0216176  15.578   0.238   4.486 -2.2378 -3.3137  0.1997
 1798UNK    C0316177  15.747   0.120   4.556 -0.0232  0.4554 -0.0889
 1798UNK    C0416178  15.874   0.149   4.489  0.2623  0.4446  0.4599
 1798UNK    F0516179  15.847   0.239   4.392 -0.4049 -0.2594 -0.2670
 1798UNK    F0616180  15.975   0.190   4.570  0.0978  0.5871 -0.1379
 1798UNK    F0716181  15.916   0.032   4.428  0.5362 -0.3756 -0.3014
 1798UNK    H0816182  15.758   0.029   4.613 -1.1182  0.5932  0.3470
 1799UNK    F0016183  17.149   4.212   8.644 -0.0519 -0.7612  0.7760
 1799UNK    C0116184  17.028   4.253   8.686 -0.8715 -0.7321 -0.4819
 1799UNK    H0216185  17.020   4.359   8.662  1.3737 -0.5638 -0.6423
 1799UNK    C0316186  16.939   4.180   8.747  0.3055  0.4222 -0.7710
 1799UNK    C0416187  16.918   4.041   8.706  0.5098 -0.1035 -0.3310
 1799UNK    F0516188  17.012   3.961   8.751 -0.2684  0.3008 -0.1333
 1799UNK    F0616189  16.803   3.991   8.755  0.4628  0.0160 -0.5526
 1799UNK    F0716190  16.918   4.035   8.572 -0.4113 -0.1053 -0.1149
 1799UNK    H0816191  16.917   4.191   8.852 -3.3913  1.0740 -1.5531
 1800UNK    F0016192  43.867   3.400   8.800  0.0661 -0.3154  0.1536
 1800UNK    C0116193  43.829   3.272   8.776 -0.4101 -0.1800 -0.6716
 1800UNK    H0216194  43.783   3.274   8.677  1.0259 -1.1130 -1.3669
 1800UNK    C0316195  43.909   3.177   8.818  0.7631 -0.3413 -0.4596
 1800UNK    C0416196  44.055   3.198   8.818  0.2045  0.5021  0.3344
 1800UNK    F0516197  44.105   3.074   8.836 -0.0211  0.1199 -0.1508
 1800UNK    F0616198  44.101   3.251   8.702  0.2026  0.4457  0.3794
 1800UNK    F0716199  44.090   3.278   8.917  0.1507 -0.0159 -0.5890
 1800UNK    H0816200  43.881   3.098   8.886  0.0012  0.5003  0.2210
 1801UNK    F0016201  10.899   3.311  11.238 -0.3778  0.2411 -0.2693
 1801UNK    C0116202  11.027   3.351  11.235  0.2573 -0.2300  0.4762
 1801UNK    H0216203  11.072   3.366  11.332 -0.0416  0.0946  0.5655
 1801UNK    C0316204  11.066   3.404  11.119 -0.0199 -0.4177 -0.3587
 1801UNK    C0416205  11.190   3.476  11.105 -0.1523  0.0481  0.0937
 1801UNK    F0516206  11.262   3.482  11.220 -0.3489 -0.0221  0.1106
 1801UNK    F0616207  11.275   3.428  11.010  0.1598 -0.2394 -0.1577
 1801UNK    F0716208  11.169   3.610  11.077 -0.1279 -0.6571  0.0885
 1801UNK    H0816209  11.063   3.331  11.039  1.5476 -0.8482 -0.0584
 1802UNK    F0016210  30.023   0.184   9.205  0.4220 -0.0129  0.3061
 1802UNK    C0116211  29.975   0.082   9.283  0.8185  0.1541 -0.2134
 1802UNK    H0216212  30.038  -0.006   9.267  0.7560  0.0308  0.2241
 1802UNK    C0316213  29.898   0.122   9.388  0.2880 -1.0769 -0.2805
 1802UNK    C0416214  29.937   0.240   9.470 -1.1356 -0.0905  0.2909
 1802UNK    F0516215  29.898   0.344   9.392  0.2247  0.0633  0.0439
 1802UNK    F0616216  29.887   0.245   9.594 -0.0514 -0.2561 -0.0847
 1802UNK    F0716217  30.073   0.250   9.480 -0.3535  0.1348  0.5172
 1802UNK    H0816218  29.844   0.055   9.453 -0.5066 -0.2531 -0.0774
 1803UNK    F0016219  12.382   0.117   2.777  0.0030  0.4580  0.9696
 1803UNK    C0116220  12.378   0.082   2.902 -0.2747 -0.4084  0.3414
 1803UNK    H0216221  12.313   0.144   2.963 -0.2607  1.1996 -1.2392
 1803UNK    C0316222  12.423  -0.038   2.935  0.6036 -0.0509 -0.2594
 1803UNK    C0416223  12.351  -0.163   2.904 -0.3588  0.4751  0.4907
 1803UNK    F0516224  12.395  -0.268   2.976  0.1301 -0.0048  0.2334
 1803UNK    F0616225  12.218  -0.147   2.912 -0.2604 -0.3096  0.0100
 1803UNK    F0716226  12.376  -0.195   2.775 -0.4510  0.1506  0.5937
 1803UNK    H0816227  12.499  -0.053   3.010  0.8805 -1.1163 -0.7489
 1804UNK    F0016228  15.551   2.971   9.765  0.0641 -0.6580 -0.1475
 1804UNK    C0116229  15.647   2.996   9.681  0.2987  0.1254  0.5297
 1804UNK    H0216230  15.743   2.975   9.729  1.2171 -0.0963 -1.3189
 1804UNK    C0316231  15.618   3.039   9.557 -0.9392 -0.0206  0.0589
 1804UNK    C0416232  15.596   3.175   9.512 -0.2051  0.1884  0.4303
 1804UNK    F0516233  15.708   3.249   9.499 -0.6201 -0.0008  0.2498
 1804UNK    F0616234  15.525   3.187   9.395  0.2536 -0.0786 -1.0849
 1804UNK    F0716235  15.516   3.225   9.608 -0.0564 -0.6058  0.1648
 1804UNK    H0816236  15.573   2.970   9.487  0.6602 -0.8251 -0.2181
 1805UNK    F0016237  10.133   2.404   2.419 -0.1989  0.4880 -0.1250
 1805UNK    C0116238  10.221   2.503   2.427 -0.2547  0.1551 -0.0926
 1805UNK    H0216239  10.234   2.542   2.528 -3.1477 -2.7349  1.5107
 1805UNK    C0316240  10.290   2.532   2.313 -0.4107 -0.1228 -0.1287
 1805UNK    C0416241  10.234   2.621   2.210  0.4896 -0.1887  0.3431
 1805UNK    F0516242  10.110   2.579   2.172 -0.0608  0.0707 -0.5273
 1805UNK    F0616243  10.217   2.745   2.264  0.0644 -0.5701 -0.6817
 1805UNK    F0716244  10.322   2.626   2.111  0.0054  0.7954 -0.5160
 1805UNK    H0816245  10.354   2.462   2.261 -1.0741 -0.0018 -1.1276
 1806UNK    F0016246  33.285   2.999   1.669  0.2217  0.0861  0.1548
 1806UNK    C0116247  33.384   2.916   1.688  0.2250 -0.1949 -0.8924
 1806UNK    H0216248  33.462   2.952   1.755 -1.5742 -2.0110  2.2835
 1806UNK    C0316249  33.360   2.797   1.644 -0.1497 -0.3838 -0.7982
 1806UNK    C0416250  33.413   2.676   1.700  0.4539  0.2187  0.4699
 1806UNK    F0516251  33.419   2.579   1.604 -0.3509  0.2281 -0.5996
 1806UNK    F0616252  33.541   2.697   1.742  0.1219 -0.3517  0.5280
 1806UNK    F0716253  33.329   2.639   1.797  0.5531  0.7094 -0.3858
 1806UNK    H0816254  33.283   2.784   1.569 -0.7822 -0.7892 -0.0915
 1807UNK    F0016255  13.230   2.961  13.205  0.2604 -0.3472 -0.1603
 1807UNK    C0116256  13.180   3.075  13.158 -0.1047 -0.3410 -0.0964
 1807UNK    H0216257  13.220   3.165  13.205 -1.1244 -0.2162  0.5318
 1807UNK    C0316258  13.100   3.072  13.057 -0.4251  0.5695 -0.0443
 1807UNK    C0416259  13.098   3.183  12.960  0.0543  0.2816  0.2317
 1807UNK    F0516260  13.180   3.163  12.855  0.0491 -0.4710 -0.0642
 1807UNK    F0616261  12.973   3.180  12.908 -0.1065  0.5257 -0.0137
 1807UNK    F0716262  13.129   3.306  13.016  0.5383 -0.3916  0.2744
 1807UNK    H0816263  13.076   2.973  13.020 -2.9970  0.7337  1.1387
 1808UNK    F0016264   5.248   4.975   6.310  0.4358  0.6599  0.6963
 1808UNK    C0116265   5.288   5.034   6.420 -1.2294  0.3768  1.0612
 1808UNK    H0216266   5.250   5.022   6.522  0.7889 -0.8023  1.7106
 1808UNK    C0316267   5.395   5.114   6.404  0.7552 -0.0994 -1.0072
 1808UNK    C0416268   5.463   5.189   6.509  0.1192  0.2219  0.6669
 1808UNK    F0516269   5.580   5.133   6.554  0.2789  0.3387 -1.4871
 1808UNK    F0616270   5.515   5.305   6.466 -0.2279 -0.2570  0.5237
 1808UNK    F0716271   5.391   5.228   6.616 -0.0821 -0.0397  0.2547
 1808UNK    H0816272   5.464   5.085   6.327  2.5522  2.3243 -0.3944
 1809UNK    F0016273  11.947   1.735   1.680  0.2396  0.0068 -0.4865
 1809UNK    C0116274  11.944   1.595   1.686 -0.2668 -0.0030 -0.6842
 1809UNK    H0216275  11.928   1.550   1.588 -0.8008  0.5162 -0.8353
 1809UNK    C0316276  11.932   1.534   1.799 -0.2775  0.2216 -0.1662
 1809UNK    C0416277  12.034   1.441   1.857  0.5940  0.6710  0.7599
 1809UNK    F0516278  11.972   1.329   1.900 -0.3035  0.1558  0.6896
 1809UNK    F0616279  12.131   1.405   1.763  0.7928 -0.0146 -0.0600
 1809UNK    F0716280  12.092   1.495   1.965 -0.7591 -0.2307  0.4990
 1809UNK    H0816281  11.857   1.568   1.869 -0.4438  0.2949 -0.3819
 1810UNK    F0016282  18.028   4.054   1.303  0.0248 -0.0461  0.1867
 1810UNK    C0116283  18.066   4.082   1.178  0.4892  0.5306 -0.3918
 1810UNK    H0216284  18.145   4.012   1.153  0.0788 -0.1567  0.2300
 1810UNK    C0316285  17.998   4.172   1.116 -0.9332 -0.5800  0.9200
 1810UNK    C0416286  17.988   4.198   0.972  0.4586  0.0218  0.0659
 1810UNK    F0516287  18.098   4.174   0.904  0.3141  0.5284 -0.3705
 1810UNK    F0616288  17.874   4.132   0.935  0.5549  0.0752 -0.1545
 1810UNK    F0716289  17.949   4.331   0.952 -0.0251 -0.2711 -0.0397
 1810UNK    H0816290  17.917   4.222   1.167 -1.5119 -0.7007  0.1098
 1811UNK    F0016291  22.462   0.511   0.472  0.2403  0.4709 -0.3914
 1811UNK    C0116292  22.354   0.577   0.419 -0.1641 -0.7908  0.0394
 1811UNK    H0216293  22.273   0.597   0.490 -1.1472 -1.9558 -0.7429
 1811UNK    C0316294  22.360   0.630   0.297 -0.1573 -0.7051 -0.5821
 1811UNK    C0416295  22.272   0.742   0.254 -0.1521 -0.4072 -0.2493
 1811UNK    F0516296  22.145   0.704   0.261  0.3618  0.2568 -0.1770
 1811UNK    F0616297  22.298   0.853   0.328  0.6875  0.1027 -0.0113
 1811UNK    F0716298  22.296   0.772   0.128  0.3773  0.1443  0.9427
 1811UNK    H0816299  22.405   0.575   0.215  2.3979 -0.9739  0.9386
 1812UNK    F0016300   2.449   1.368  10.367 -0.0673 -0.0685 -0.3845
 1812UNK    C0116301   2.334   1.319  10.413 -0.0647 -0.4440  0.2672
 1812UNK    H0216302   2.328   1.326  10.522  3.8461 -1.0087  0.5817
 1812UNK    C0316303   2.273   1.232  10.335  0.5002 -0.1084  0.4454
 1812UNK    C0416304   2.134   1.188  10.329  0.0616  0.5393  0.6821
 1812UNK    F0516305   2.087   1.168  10.458  0.2225  0.1370  0.0698
 1812UNK    F0616306   2.059   1.289  10.274 -0.0017 -0.2942  0.1386
 1812UNK    F0716307   2.117   1.082  10.250  0.1967 -0.0926 -0.4324
 1812UNK    H0816308   2.336   1.186  10.261  1.3499 -0.8075  1.6063
 1813UNK    F0016309   7.849   4.609   0.242  0.3420  0.3590  0.4057
 1813UNK    C0116310   7.937   4.584   0.146 -0.5337 -0.4497 -0.1669
 1813UNK    H0216311   8.032   4.547   0.183  1.0901  1.2159 -2.5466
 1813UNK    C0316312   7.917   4.645   0.030 -0.2712  0.4418 -0.8678
 1813UNK    C0416313   7.949   4.555  -0.083  0.2490  0.2240  0.3968
 1813UNK    F0516314   7.961   4.640  -0.186 -0.6835  0.0349  0.4143
 1813UNK    F0616315   8.073   4.500  -0.082 -0.6507  0.4848  0.3204
 1813UNK    F0716316   7.869   4.447  -0.099 -0.0267  0.0393 -0.3402
 1813UNK    H0816317   7.835   4.714   0.015  0.0238  0.8480 -0.6192
 1814UNK    F0016318   2.000   2.829   6.237 -0.0645  0.3104  0.3144
 1814UNK    C0116319   1.928   2.727   6.189 -0.4325  0.5147 -0.5181
 1814UNK    H0216320   1.985   2.682   6.107  3.7414 -1.1546  3.1092
 1814UNK    C0316321   1.797   2.720   6.221 -0.1148 -0.7450  0.6279
 1814UNK    C0416322   1.721   2.597   6.191 -0.1045  0.8222  0.0084
 1814UNK    F0516323   1.589   2.629   6.204 -0.1427 -0.6945 -0.2122
 1814UNK    F0616324   1.750   2.560   6.061  0.2743  0.3679 -0.3812
 1814UNK    F0716325   1.752   2.491   6.266 -0.2119  0.0742 -0.2218
 1814UNK    H0816326   1.734   2.807   6.231  0.2202 -0.3140 -0.9752
 1815UNK    F0016327  40.311   1.144   4.417  0.0866 -0.3902  0.1830
 1815UNK    C0116328  40.290   1.119   4.546 -0.3228 -0.2625  0.4343
 1815UNK    H0216329  40.195   1.064   4.545 -0.6983  0.3617 -2.6497
 1815UNK    C0316330  40.370   1.146   4.638 -0.1879  0.6777 -1.3503
 1815UNK    C0416331  40.364   1.278   4.700 -0.5208 -0.5744  0.0155
 1815UNK    F0516332  40.469   1.302   4.776  0.6973  0.1498  0.6857
 1815UNK    F0616333  40.368   1.370   4.604 -1.1181  0.4908  0.0775
 1815UNK    F0716334  40.246   1.297   4.762  0.7331  0.0007 -0.2060
 1815UNK    H0816335  40.473   1.145   4.604 -0.3654 -0.9685 -1.9285
 1816UNK    F0016336  11.588   3.649  11.361 -0.1666  0.6165 -0.3625
 1816UNK    C0116337  11.673   3.650  11.465  0.5649 -0.2137 -0.2675
 1816UNK    H0216338  11.690   3.550  11.505  0.5799 -0.2087 -0.2602
 1816UNK    C0316339  11.675   3.751  11.554  0.0227 -0.4349  0.7889
 1816UNK    C0416340  11.800   3.774  11.626 -0.2863 -0.3123 -0.4611
 1816UNK    F0516341  11.766   3.855  11.730 -0.6521 -0.5213  0.4641
 1816UNK    F0616342  11.851   3.653  11.673  0.1822 -0.5906 -0.1172
 1816UNK    F0716343  11.880   3.853  11.551 -0.4715  0.6245  0.1003
 1816UNK    H0816344  11.611   3.837  11.542  0.5501 -0.2821 -1.0753
 1817UNK    F0016345  47.411   1.492  12.961 -0.6540 -0.8768  0.7358
 1817UNK    C0116346  47.365   1.488  12.838  0.4206  0.0695  0.1619
 1817UNK    H0216347  47.437   1.442  12.771 -2.8971 -1.1211 -2.7507
 1817UNK    C0316348  47.235   1.497  12.817  0.3384 -0.8401 -0.1949
 1817UNK    C0416349  47.178   1.435  12.696  0.6200  0.8627  0.3833
 1817UNK    F0516350  47.058   1.385  12.722 -0.3980  0.6935 -0.1197
 1817UNK    F0616351  47.163   1.513  12.591 -0.2465  0.0057 -0.1086
 1817UNK    F0716352  47.260   1.344  12.645  0.4905  0.0099 -0.0712
 1817UNK    H0816353  47.183   1.582  12.858  1.3019 -0.8097  0.9809
 1818UNK    F0016354  10.470   3.288   0.935 -0.6983 -0.4359 -0.3729
 1818UNK    C0116355  10.399   3.403   0.949 -0.0270 -0.0853 -0.6045
 1818UNK    H0216356  10.294   3.397   0.921 -0.3003  0.2084  0.3431
 1818UNK    C0316357  10.440   3.500   1.033  0.1266 -0.1340 -0.4528
 1818UNK    C0416358  10.340   3.601   1.084 -0.6488  0.2513  0.4590
 1818UNK    F0516359  10.411   3.681   1.156 -0.0240 -0.0783  0.1751
 1818UNK    F0616360  10.282   3.674   0.980  0.5468  0.0777 -0.0649
 1818UNK    F0716361  10.250   3.538   1.165 -0.1603  0.2371 -0.2486
 1818UNK    H0816362  10.541   3.501   1.070  0.6136 -1.5909 -1.6864
 1819UNK    F0016363  39.057   4.810   7.670  0.2484  0.0228 -0.0174
 1819UNK    C0116364  39.175   4.842   7.621  0.1035 -0.1870  0.5763
 1819UNK    H0216365  39.236   4.755   7.594 -0.5426 -0.3176 -0.5087
 1819UNK    C0316366  39.220   4.966   7.647 -0.0142  0.5927 -0.3165
 1819UNK    C0416367  39.345   5.025   7.595  0.1215  0.1465 -0.2669
 1819UNK    F0516368  39.392   5.105   7.693  0.2462 -0.0750 -0.0143
 1819UNK    F0616369  39.441   4.930   7.586  0.3260 -0.2975  0.2681
 1819UNK    F0716370  39.321   5.099   7.485 -0.1739  0.1459  0.0101
 1819UNK    H0816371  39.152   5.026   7.705 -0.5951  0.3136 -0.7029
 1820UNK    F0016372   6.274   3.151  14.316  0.3359 -0.2062  0.0234
 1820UNK    C0116373   6.295   3.093  14.437 -0.2345 -0.4283 -0.6041
 1820UNK    H0216374   6.258   2.990  14.442 -1.9810  0.1787 -0.7414
 1820UNK    C0316375   6.406   3.131  14.507 -0.3073  0.2948 -0.2725
 1820UNK    C0416376   6.510   3.027  14.539  0.9238  0.7946  0.0694
 1820UNK    F0516377   6.595   3.013  14.434 -0.6359 -0.1629 -0.2911
 1820UNK    F0616378   6.581   3.057  14.652 -0.0064 -0.0469 -0.1935
 1820UNK    F0716379   6.453   2.905  14.566 -0.2082  0.4379  0.1839
 1820UNK    H0816380   6.468   3.203  14.457  2.9318 -3.4877 -1.9953
 1821UNK    F0016381  18.143   1.353  11.088 -0.2541 -0.8753  0.1471
 1821UNK    C0116382  18.029   1.315  11.022  0.0402 -0.0443  1.0405
 1821UNK    H0216383  17.963   1.258  11.088 -1.3202  0.4078  0.1027
 1821UNK    C0316384  18.033   1.294  10.893 -0.1760  0.3701 -0.5516
 1821UNK    C0416385  17.920   1.272  10.797  0.0178  0.2346 -0.3303
 1821UNK    F0516386  17.975   1.254  10.674 -0.0704  0.0336  0.1647
 1821UNK    F0616387  17.833   1.174  10.820  0.3713 -0.0038 -0.0178
 1821UNK    F0716388  17.842   1.382  10.793 -0.1355  0.5027  0.0760
 1821UNK    H0816389  18.132   1.285  10.851  0.8530  1.1301  1.6230
 1822UNK    F0016390  18.877   0.062   0.500  0.4978  0.8671 -0.1185
 1822UNK    C0116391  18.872  -0.044   0.588 -0.8384  0.4169  0.3798
 1822UNK    H0216392  18.905  -0.136   0.541 -0.8254  0.6321 -0.0340
 1822UNK    C0316393  18.840  -0.028   0.716  0.3232  0.7347  0.1818
 1822UNK    C0416394  18.884  -0.121   0.821 -0.3628  0.2454 -0.8199
 1822UNK    F0516395  18.831  -0.093   0.940  0.2922  0.2230  0.0325
 1822UNK    F0616396  18.861  -0.251   0.792  0.1300  0.1105 -0.0624
 1822UNK    F0716397  19.017  -0.110   0.835 -0.0032  0.0044 -0.1012
 1822UNK    H0816398  18.809   0.068   0.754 -0.8646  1.1870 -1.8371
 1823UNK    F0016399  23.454   4.516   6.815 -0.1011 -0.1364 -0.0286
 1823UNK    C0116400  23.445   4.600   6.915 -0.0830 -1.3984  0.5252
 1823UNK    H0216401  23.523   4.581   6.988 -0.0742  1.0193  1.1943
 1823UNK    C0316402  23.327   4.648   6.941  0.2410  0.1406 -0.3058
 1823UNK    C0416403  23.290   4.793   6.948 -0.1573 -0.3398 -0.7212
 1823UNK    F0516404  23.350   4.859   6.848  0.2976 -0.0588 -0.7270
 1823UNK    F0616405  23.156   4.816   6.938  0.1339 -0.0315 -0.0592
 1823UNK    F0716406  23.327   4.852   7.066  0.4776  0.3606  0.3107
 1823UNK    H0816407  23.243   4.585   6.964  0.1453  0.6655  0.8111
 1824UNK    F0016408  27.008   4.957  10.581  0.4037 -0.6169 -0.0513
 1824UNK    C0116409  26.993   5.045  10.481 -0.0585  0.5526 -0.5735
 1824UNK    H0216410  27.073   5.118  10.495  2.2405 -2.0083  0.0492
 1824UNK    C0316411  26.931   5.010  10.369  0.6272  0.1917 -0.4512
 1824UNK    C0416412  26.964   5.074  10.241 -0.6813  0.1749 -0.2136
 1824UNK    F0516413  27.059   5.015  10.164  0.5705 -0.0735 -0.3536
 1824UNK    F0616414  26.862   5.075  10.155 -0.3848  0.4494 -0.5668
 1824UNK    F0716415  27.013   5.196  10.252  0.2106 -0.3167 -0.1957
 1824UNK    H0816416  26.905   4.907  10.348 -1.5712  0.9932 -1.7961
 1825UNK    F0016417  13.801   0.700  11.676 -0.4625 -0.3039  0.2447
 1825UNK    C0116418  13.850   0.723  11.551  0.5425 -0.4823  0.3143
 1825UNK    H0216419  13.851   0.633  11.489  0.5776 -1.1014  1.2089
 1825UNK    C0316420  13.828   0.837  11.491  0.5110 -0.4395  1.2680
 1825UNK    C0416421  13.861   0.861  11.351 -0.2119  0.4205 -0.3713
 1825UNK    F0516422  13.866   0.998  11.336  0.5624 -0.0758  0.4932
 1825UNK    F0616423  13.967   0.794  11.314  0.1133 -0.1465 -0.6557
 1825UNK    F0716424  13.762   0.809  11.277  0.0925 -0.1193  0.2121
 1825UNK    H0816425  13.819   0.932  11.541  1.3583 -1.2016  2.8915
 1826UNK    F0016426  33.966   5.178   4.700 -0.1361 -0.4898 -0.1485
 1826UNK    C0116427  33.912   5.070   4.767  0.3526 -0.1718  0.2195
 1826UNK    H0216428  33.845   5.098   4.849  0.9702 -0.1525  0.7185
 1826UNK    C0316429  33.926   4.951   4.706 -0.1471  0.1205  0.5007
 1826UNK    C0416430  33.900   4.818   4.769  0.7308 -0.6712  0.3324
 1826UNK    F0516431  33.771   4.785   4.742  0.2080  0.3360  0.9384
 1826UNK    F0616432  33.974   4.727   4.700 -0.3582 -0.0485 -0.2623
 1826UNK    F0716433  33.922   4.815   4.901 -0.3882 -0.1179 -0.9779
 1826UNK    H0816434  34.001   4.944   4.628 -0.6591 -1.5071  0.1301
 1827UNK    F0016435  35.998   4.797  11.561  0.0792  0.8967  0.2369
 1827UNK    C0116436  35.951   4.869  11.669 -0.5114  0.3306 -0.1010
 1827UNK    H0216437  36.035   4.921  11.715 -0.6174  1.7159 -1.4289
 1827UNK    C0316438  35.831   4.922  11.658  0.3357 -0.2764 -0.2802
 1827UNK    C0416439  35.804   5.048  11.733  0.7237 -0.2006  0.7515
 1827UNK    F0516440  35.663   5.063  11.735  0.1470 -0.0935  0.4497
 1827UNK    F0616441  35.858   5.060  11.855  0.3230  0.4458  0.0070
 1827UNK    F0716442  35.839   5.164  11.661 -0.2683 -0.1997  0.3034
 1827UNK    H0816443  35.783   4.924  11.562 -1.1524 -0.8225  0.4321
 1828UNK    F0016444  51.522   4.794   0.656 -0.4533  0.3248 -0.4303
 1828UNK    C0116445  51.611   4.706   0.611 -0.3385 -0.1681 -0.2136
 1828UNK    H0216446  51.576   4.665   0.516 -1.0998  1.5381 -0.6924
 1828UNK    C0316447  51.738   4.713   0.647  0.0808 -0.2040 -0.6992
 1828UNK    C0416448  51.820   4.833   0.605  0.4438  0.1766  0.1738
 1828UNK    F0516449  51.797   4.845   0.474  0.0830  0.2292  0.1315
 1828UNK    F0616450  51.796   4.955   0.661 -0.2607  0.7565  0.2898
 1828UNK    F0716451  51.951   4.802   0.604  0.4855 -0.1345 -0.4256
 1828UNK    H0816452  51.804   4.630   0.669  1.7952  1.5230  0.9899
 1829UNK    F0016453  38.417   4.690   4.627 -0.4258 -0.4506  0.6969
 1829UNK    C0116454  38.422   4.556   4.614  0.5557 -0.3899  0.5755
 1829UNK    H0216455  38.347   4.504   4.674  2.0829 -3.7016 -0.2730
 1829UNK    C0316456  38.500   4.510   4.515  0.2783 -0.4023 -0.0173
 1829UNK    C0416457  38.496   4.368   4.476  0.4003 -0.1143 -0.1818
 1829UNK    F0516458  38.582   4.332   4.383 -0.1483  0.1617 -0.1980
 1829UNK    F0616459  38.524   4.288   4.581  0.0354 -0.2010  0.2685
 1829UNK    F0716460  38.384   4.314   4.425 -0.2096  0.1811 -0.0953
 1829UNK    H0816461  38.593   4.558   4.490 -0.7943  0.1976 -2.9788
 1830UNK    F0016462  49.659   1.664  13.593 -0.0377  0.1498 -0.2570
 1830UNK    C0116463  49.698   1.545  13.638 -0.3608  0.4818  0.0918
 1830UNK    H0216464  49.735   1.547  13.741 -1.3206 -0.4489  0.4673
 1830UNK    C0316465  49.644   1.437  13.576  0.1076  0.0375  0.4538
 1830UNK    C0416466  49.606   1.310  13.635 -0.6195  0.2055 -0.1760
 1830UNK    F0516467  49.564   1.215  13.545 -0.0934 -0.4179 -0.0473
 1830UNK    F0616468  49.708   1.264  13.709  0.0349 -0.2425  0.2037
 1830UNK    F0716469  49.500   1.330  13.713  0.6436  0.0265 -0.4339
 1830UNK    H0816470  49.606   1.446  13.475 -1.4662  0.5118  1.0782
 1831UNK    F0016471   1.064   0.675  12.838  0.8229 -0.1868  0.4140
 1831UNK    C0116472   1.029   0.560  12.791  1.0675 -0.0829  0.5409
 1831UNK    H0216473   1.120   0.504  12.771  1.6331  0.1932  2.2044
 1831UNK    C0316474   0.912   0.549  12.723  0.4724 -0.3883 -0.6428
 1831UNK    C0416475   0.810   0.664  12.733 -0.4012 -0.4688  0.2476
 1831UNK    F0516476   0.777   0.678  12.867 -0.7119 -0.0081 -0.3073
 1831UNK    F0616477   0.861   0.760  12.650 -0.0390 -0.6078 -0.2073
 1831UNK    F0716478   0.698   0.632  12.660  0.1289 -0.2761 -0.0710
 1831UNK    H0816479   0.907   0.498  12.628  2.9237 -3.7167  0.9193
 1832UNK    F0016480  51.847   0.440  13.875  0.8975 -0.2551  0.2099
 1832UNK    C0116481  51.786   0.555  13.832  0.1632  0.2669 -0.4377
 1832UNK    H0216482  51.827   0.587  13.737  2.6880 -0.3922  0.3890
 1832UNK    C0316483  51.716   0.636  13.911 -0.1523  0.5668 -0.4286
 1832UNK    C0416484  51.795   0.730  13.993  0.0657 -0.4554 -0.8910
 1832UNK    F0516485  51.876   0.804  13.915 -0.7961  0.3806 -0.0122
 1832UNK    F0616486  51.715   0.824  14.057  0.1087  0.1754 -0.5759
 1832UNK    F0716487  51.859   0.660  14.098 -0.3650  0.3448 -0.3134
 1832UNK    H0816488  51.615   0.668  13.891  0.4698  3.5922  0.9334
 1833UNK    F0016489  39.323   2.156  14.046 -0.7205  0.1095 -0.4670
 1833UNK    C0116490  39.410   2.251  14.020  0.4465  0.6428  0.5462
 1833UNK    H0216491  39.510   2.224  14.055  0.5434  1.1696  0.6683
 1833UNK    C0316492  39.365   2.369  13.980  0.1024  0.1160  0.3683
 1833UNK    C0416493  39.339   2.474  14.078  0.4889 -0.7612 -0.6734
 1833UNK    F0516494  39.258   2.571  14.037 -0.2016  0.4336  0.1868
 1833UNK    F0616495  39.285   2.434  14.195 -0.2271 -0.2980  0.1981
 1833UNK    F0716496  39.455   2.527  14.125  0.1333  0.2120 -0.1506
 1833UNK    H0816497  39.365   2.394  13.875  2.5834 -1.8653 -0.1554
 1834UNK    F0016498   0.128   1.572   4.196  0.2599  0.2306  0.5307
 1834UNK    C0116499   0.050   1.605   4.089  0.0218 -0.3138  0.0498
 1834UNK    H0216500   0.107   1.588   3.998  0.4630 -0.0043  0.2686
 1834UNK    C0316501  -0.053   1.682   4.109 -0.4150  0.3101  0.1967
 1834UNK    C0416502  -0.170   1.682   4.024 -0.4014  0.2606  0.1170
 1834UNK    F0516503  -0.267   1.612   4.091  0.4306 -0.2231  0.5472
 1834UNK    F0616504  -0.223   1.800   4.008 -0.1245 -0.8587  0.4491
 1834UNK    F0716505  -0.142   1.631   3.900 -0.4763  0.6113 -0.1004
 1834UNK    H0816506  -0.084   1.706   4.209  1.8576  1.5829  0.6399
 1835UNK    F0016507  50.244   3.401  10.130  0.3859 -0.1694 -0.4308
 1835UNK    C0116508  50.173   3.365  10.022 -0.0081 -0.6100  0.1808
 1835UNK    H0216509  50.221   3.272   9.989  1.5029 -0.4602  1.8673
 1835UNK    C0316510  50.046   3.402  10.009  0.2126 -0.1923 -0.4373
 1835UNK    C0416511  49.942   3.314   9.949 -0.0899  0.1183  0.6699
 1835UNK    F0516512  49.865   3.242  10.036  0.1482 -0.1855  0.2906
 1835UNK    F0616513  49.848   3.400   9.910 -0.1930  0.3948 -0.7749
 1835UNK    F0716514  49.973   3.241   9.829 -0.5794 -0.4870 -0.2482
 1835UNK    H0816515  50.023   3.504   9.983  2.1096  0.2788 -0.3588
 1836UNK    F0016516  18.251   2.932   8.369 -0.0586  0.7301 -0.2964
 1836UNK    C0116517  18.258   3.057   8.419 -0.3812 -0.5849 -0.3437
 1836UNK    H0216518  18.232   3.060   8.525 -0.3125  0.3274 -0.3496
 1836UNK    C0316519  18.305   3.152   8.338  0.2842 -0.1818 -0.2049
 1836UNK    C0416520  18.337   3.284   8.400 -0.4726  0.4772  0.5550
 1836UNK    F0516521  18.399   3.362   8.307  0.0809  0.2836  0.0878
 1836UNK    F0616522  18.227   3.349   8.438 -0.0113  0.7097 -0.0728
 1836UNK    F0716523  18.406   3.275   8.515 -0.0883  0.0150 -0.2260
 1836UNK    H0816524  18.287   3.158   8.232  0.6511 -0.1551 -0.2690
 1837UNK    F0016525  28.443   2.230   5.846 -0.2136 -0.1653 -0.3520
 1837UNK    C0116526  28.313   2.199   5.868  0.1000  0.0507 -0.7901
 1837UNK    H0216527  28.316   2.105   5.923 -0.1814  0.9068  0.7136
 1837UNK    C0316528  28.252   2.308   5.911  0.9431 -0.1553  0.5025
 1837UNK    C0416529  28.145   2.311   6.015 -0.1482  0.0172  0.0194
 1837UNK    F0516530  28.075   2.426   6.011 -0.2480  0.4712  0.4976
 1837UNK    F0616531  28.058   2.212   5.983 -0.6256  0.9948  0.3950
 1837UNK    F0716532  28.186   2.286   6.141  0.1853  0.5860 -0.6559
 1837UNK    H0816533  28.258   2.399   5.852  1.3660  0.4523  1.4629
 1838UNK    F0016534  23.867   2.845   5.651  0.3262 -0.1193  0.1352
 1838UNK    C0116535  23.962   2.865   5.746  0.1164 -0.5829  0.0676
 1838UNK    H0216536  24.057   2.859   5.692  0.9234 -0.9594  1.5149
 1838UNK    C0316537  23.928   2.913   5.867 -1.0995 -0.1706 -0.3713
 1838UNK    C0416538  23.989   3.034   5.926 -0.1242 -0.4249  0.1115
 1838UNK    F0516539  24.117   3.046   5.892  0.4202 -0.0685 -0.0752
 1838UNK    F0616540  23.924   3.141   5.881 -0.0321 -0.1994  0.8826
 1838UNK    F0716541  23.987   3.027   6.064  0.0265  0.3528  0.2105
 1838UNK    H0816542  23.855   2.857   5.923 -1.6967  0.8959 -0.0832
 1839UNK    F0016543  50.897   0.527   8.664  0.1509 -0.6705 -0.3646
 1839UNK    C0116544  50.919   0.575   8.539 -0.1836 -0.6157 -0.5095
 1839UNK    H0216545  51.013   0.630   8.544  0.7795 -2.0097 -2.3067
 1839UNK    C0316546  50.851   0.508   8.440 -0.8992 -0.9005 -0.6922
 1839UNK    C0416547  50.709   0.474   8.433 -0.2029 -0.3142 -0.0496
 1839UNK    F0516548  50.641   0.593   8.424 -0.4305 -0.1622  0.4486
 1839UNK    F0616549  50.688   0.413   8.316  0.1023  0.5116  0.8677
 1839UNK    F0716550  50.638   0.414   8.536  0.0675 -0.2264 -0.3967
 1839UNK    H0816551  50.880   0.551   8.346  0.5298  2.1070  1.0252
 1840UNK    F0016552   6.337   4.910   7.544  0.1276 -0.5550  0.2542
 1840UNK    C0116553   6.360   4.792   7.484 -0.7075 -0.3152 -0.4065
 1840UNK    H0216554   6.358   4.819   7.378 -0.0010 -0.3259 -0.4251
 1840UNK    C0316555   6.437   4.693   7.535  0.5040  0.6684  0.4892
 1840UNK    C0416556   6.584   4.687   7.523  0.2137  0.1430  0.1686
 1840UNK    F0516557   6.653   4.725   7.414 -0.0090  0.2744  0.1832
 1840UNK    F0616558   6.641   4.751   7.629  0.4127  0.1895 -0.3213
 1840UNK    F0716559   6.604   4.554   7.537  0.4607  0.4626  0.3521
 1840UNK    H0816560   6.398   4.627   7.611  2.7299 -1.4531 -0.1460
 1841UNK    F0016561   0.971   1.179   9.592 -0.4646 -1.1438  0.1546
 1841UNK    C0116562   0.965   1.040   9.609 -0.1499  0.3708 -0.1793
 1841UNK    H0216563   0.864   1.003   9.627  0.6616 -1.2623  1.1090
 1841UNK    C0316564   1.076   0.982   9.572  0.4383 -1.2739 -0.2641
 1841UNK    C0416565   1.109   0.840   9.581  0.7461  0.3141  0.4636
 1841UNK    F0516566   1.021   0.785   9.495  0.7001  0.3660  0.8967
 1841UNK    F0616567   1.231   0.807   9.544  0.1230 -0.2330 -0.1544
 1841UNK    F0716568   1.087   0.806   9.706 -0.2254  0.2627  0.1400
 1841UNK    H0816569   1.153   1.034   9.516  0.8665 -1.1219  0.4659
 1842UNK    F0016570  28.538   1.420   4.684 -0.0476  0.6895 -0.2737
 1842UNK    C0116571  28.613   1.393   4.791  0.5949 -0.3923 -0.1116
 1842UNK    H0216572  28.546   1.380   4.876  0.1655  0.4934 -0.3082
 1842UNK    C0316573  28.718   1.318   4.761  0.0056  0.7308  0.3153
 1842UNK    C0416574  28.791   1.240   4.861 -0.2679  0.4476 -0.5594
 1842UNK    F0516575  28.790   1.311   4.978  0.2497  0.0184 -0.1103
 1842UNK    F0616576  28.731   1.118   4.879 -0.3928 -0.0623 -0.2371
 1842UNK    F0716577  28.922   1.215   4.828 -0.5328  0.1475  0.0936
 1842UNK    H0816578  28.719   1.278   4.661 -0.7328  0.5573  0.3790
 1843UNK    F0016579   1.069   0.414  12.282 -0.7365  0.3884  0.2658
 1843UNK    C0116580   1.020   0.337  12.379  0.0478  1.0902 -1.0273
 1843UNK    H0216581   0.965   0.391  12.456 -0.6511  1.0654 -1.4982
 1843UNK    C0316582   1.093   0.231  12.398  0.3742 -0.1271 -0.2519
 1843UNK    C0416583   1.036   0.122  12.470  0.1412  0.0000  0.2556
 1843UNK    F0516584   1.139   0.047  12.513 -0.3473  0.0852  0.1022
 1843UNK    F0616585   0.971   0.156  12.582 -0.2282 -0.0093  0.0997
 1843UNK    F0716586   0.947   0.059  12.381 -0.7861 -0.0788 -0.1901
 1843UNK    H0816587   1.200   0.224  12.396  0.2868 -1.3146 -1.7834
 1844UNK    F0016588  22.053   3.330   2.825  0.5421  0.3237  0.2024
 1844UNK    C0116589  22.082   3.227   2.906 -0.1216  0.6771  0.2091
 1844UNK    H0216590  22.175   3.247   2.960  1.8379 -1.4813 -2.2175
 1844UNK    C0316591  21.994   3.133   2.935 -0.4255 -0.3631 -0.2920
 1844UNK    C0416592  21.941   3.031   2.843  0.1940 -0.7518 -0.6061
 1844UNK    F0516593  21.909   3.073   2.717 -0.1793  0.5068  0.0091
 1844UNK    F0616594  22.054   2.956   2.820  0.2853  0.5321 -0.0348
 1844UNK    F0716595  21.843   2.956   2.905 -0.1128 -0.5445  0.4073
 1844UNK    H0816596  21.933   3.147   3.023  1.8678  1.6564  1.0240
 1845UNK    F0016597  43.611   0.732   2.744  0.0727  0.0973  0.5462
 1845UNK    C0116598  43.589   0.643   2.645 -0.1630  0.1592  0.6657
 1845UNK    H0216599  43.607   0.540   2.677 -0.7563 -0.1750 -0.0746
 1845UNK    C0316600  43.560   0.685   2.526 -0.2118  0.6308 -1.0140
 1845UNK    C0416601  43.545   0.584   2.419 -0.2369 -0.8415  0.5728
 1845UNK    F0516602  43.422   0.535   2.411  0.3350 -0.0221  0.3346
 1845UNK    F0616603  43.580   0.626   2.296  0.4373 -0.1226 -0.1244
 1845UNK    F0716604  43.630   0.485   2.443 -0.1379  0.4201  0.6336
 1845UNK    H0816605  43.572   0.786   2.487  0.1035 -0.3648 -3.6118
 1846UNK    F0016606  48.662   0.924  10.540 -0.1099 -0.0832  0.0872
 1846UNK    C0116607  48.755   0.996  10.607 -0.3738 -0.6612  0.3031
 1846UNK    H0216608  48.845   0.982  10.547 -1.6434 -0.4910 -1.6804
 1846UNK    C0316609  48.725   1.053  10.723 -0.4680  0.0542  1.1633
 1846UNK    C0416610  48.624   0.989  10.807 -0.2390  0.5418  0.0715
 1846UNK    F0516611  48.643   1.014  10.941  0.4738 -0.0221  0.3569
 1846UNK    F0616612  48.508   1.032  10.781 -0.4768 -0.2888 -0.2863
 1846UNK    F0716613  48.629   0.859  10.790  0.4787  0.5508 -0.3649
 1846UNK    H0816614  48.745   1.159  10.720 -1.4637  0.2727  1.9919
 1847UNK    F0016615  41.527   4.142   4.547  0.0239 -0.4908 -0.2834
 1847UNK    C0116616  41.658   4.122   4.523  0.3712  0.6306  0.5066
 1847UNK    H0216617  41.708   4.217   4.541  2.5873 -0.7365  1.7151
 1847UNK    C0316618  41.715   4.003   4.510  1.4311  0.3003  0.5489
 1847UNK    C0416619  41.837   3.954   4.571 -0.0516  0.7479 -0.1949
 1847UNK    F0516620  41.933   4.039   4.538 -0.8265 -0.6227 -0.9106
 1847UNK    F0616621  41.845   3.957   4.709  0.0392 -0.8818  0.0858
 1847UNK    F0716622  41.883   3.829   4.520 -0.1419 -0.2408  0.0264
 1847UNK    H0816623  41.648   3.935   4.461  2.1874 -0.9579  1.2555
 1848UNK    F0016624  23.649   1.972   6.377 -0.9319  0.2473 -0.5441
 1848UNK    C0116625  23.716   2.087   6.392  0.2471  0.5260  0.0245
 1848UNK    H0216626  23.785   2.102   6.309 -1.5077  3.2018 -1.0237
 1848UNK    C0316627  23.685   2.167   6.490 -0.7584  0.1873  0.0906
 1848UNK    C0416628  23.708   2.315   6.493  0.2628 -0.5766  0.1102
 1848UNK    F0516629  23.809   2.360   6.418  0.3766  0.5442 -0.3170
 1848UNK    F0616630  23.595   2.382   6.461 -0.2211 -0.7658  0.4151
 1848UNK    F0716631  23.736   2.352   6.620 -0.0175 -0.4172  0.1914
 1848UNK    H0816632  23.644   2.129   6.583 -0.0128 -0.9806 -0.0507
 1849UNK    F0016633   3.466   2.051   2.999 -0.2016 -0.1470 -0.3961
 1849UNK    C0116634   3.498   2.177   2.990 -0.0017 -0.4509 -0.5205
 1849UNK    H0216635   3.483   2.230   3.084 -1.0482 -0.7379 -0.5144
 1849UNK    C0316636   3.490   2.241   2.872  0.4405 -0.7565 -0.0804
 1849UNK    C0416637   3.538   2.378   2.862  0.3244 -0.4487  0.1366
 1849UNK    F0516638   3.657   2.393   2.923 -0.2162 -0.1070  0.5295
 1849UNK    F0616639   3.553   2.433   2.738  0.3177  0.4055 -0.1373
 1849UNK    F0716640   3.450   2.458   2.924 -0.2583 -0.3320 -0.0219
 1849UNK    H0816641   3.480   2.183   2.781 -3.5035  0.2194 -0.3237
 1850UNK    F0016642   3.247   4.190   0.402 -0.0547 -0.0169  0.3585
 1850UNK    C0116643   3.303   4.093   0.475 -0.9339 -0.2109  1.0754
 1850UNK    H0216644   3.359   4.023   0.413 -0.3104  1.5449 -0.3988
 1850UNK    C0316645   3.260   4.072   0.601 -0.2391 -0.1537  0.2295
 1850UNK    C0416646   3.324   3.977   0.692  0.1417  0.1962 -0.2862
 1850UNK    F0516647   3.436   4.024   0.747 -0.2414  0.1268  0.3651
 1850UNK    F0616648   3.253   3.959   0.807  0.3964  0.4133 -0.1305
 1850UNK    F0716649   3.333   3.846   0.641 -0.8904  0.1188 -0.0363
 1850UNK    H0816650   3.193   4.138   0.654  0.1797  1.0053 -0.6765
 1851UNK    F0016651  27.410   1.522   4.175  0.0265 -0.2971 -0.2742
 1851UNK    C0116652  27.516   1.462   4.226 -0.5040  0.6760  0.2593
 1851UNK    H0216653  27.537   1.364   4.183 -0.7802  1.0420 -0.7199
 1851UNK    C0316654  27.602   1.538   4.298  0.0569 -0.2574 -0.5783
 1851UNK    C0416655  27.544   1.583   4.429  0.6235 -0.3134 -0.4399
 1851UNK    F0516656  27.618   1.673   4.488  0.3438 -0.4746 -0.0675
 1851UNK    F0616657  27.423   1.646   4.410 -0.1933  0.3428 -0.5235
 1851UNK    F0716658  27.519   1.484   4.518  0.1787  0.9251 -0.9376
 1851UNK    H0816659  27.650   1.621   4.249 -0.8563  0.0368 -0.9928
 1852UNK    F0016660  17.510   5.077  12.404  0.1015  0.3928 -0.2612
 1852UNK    C0116661  17.433   4.969  12.406  0.0353 -0.4634 -0.8049
 1852UNK    H0216662  17.407   4.941  12.304 -0.6937  0.4961 -0.8823
 1852UNK    C0316663  17.355   4.947  12.517 -0.3394  0.3781 -0.2154
 1852UNK    C0416664  17.354   4.809  12.574 -0.0149  0.7988  0.6701
 1852UNK    F0516665  17.246   4.797  12.648  0.2270  0.0625  0.1602
 1852UNK    F0616666  17.389   4.711  12.488  0.0428  0.5027 -0.0769
 1852UNK    F0716667  17.446   4.799  12.672  0.2093 -0.2151  0.2400
 1852UNK    H0816668  17.361   5.020  12.596 -2.3029  0.6247 -0.2873
 1853UNK    F0016669  24.050   4.752  11.752 -0.7253  0.1454 -0.1189
 1853UNK    C0116670  23.970   4.771  11.643  0.1514  0.6450 -0.4186
 1853UNK    H0216671  23.965   4.693  11.568 -1.1375  1.6693 -1.4423
 1853UNK    C0316672  23.911   4.888  11.638 -0.0449  0.5704  0.4941
 1853UNK    C0416673  23.783   4.917  11.568  0.3848  1.2570  0.2505
 1853UNK    F0516674  23.766   5.054  11.560  0.1799  0.2859 -0.6799
 1853UNK    F0616675  23.794   4.878  11.441  0.3291 -0.2499  0.1100
 1853UNK    F0716676  23.667   4.872  11.628 -0.1940 -0.0903  0.6546
 1853UNK    H0816677  23.955   4.968  11.695  0.0399  0.3515  0.7353
 1854UNK    F0016678  50.883   3.303   9.026 -0.1106 -0.0799 -0.4035
 1854UNK    C0116679  51.005   3.363   9.020 -0.2779 -0.6164  0.6322
 1854UNK    H0216680  51.080   3.287   9.038 -1.3847 -1.8206  0.1989
 1854UNK    C0316681  51.019   3.489   8.990 -0.2749  0.5290  0.1268
 1854UNK    C0416682  51.039   3.598   9.080 -0.1352 -0.4012 -0.4596
 1854UNK    F0516683  51.142   3.567   9.156  0.1445  0.3018 -0.0701
 1854UNK    F0616684  51.093   3.703   9.020 -0.1011  0.6059 -0.2596
 1854UNK    F0716685  50.935   3.636   9.149  0.0862  0.6904 -0.3941
 1854UNK    H0816686  50.973   3.522   8.898  1.7585  0.5769 -0.9069
 1855UNK    F0016687  23.801   4.889   6.743 -0.1618  0.3106 -0.3489
 1855UNK    C0116688  23.862   4.895   6.622  0.1252 -0.4108 -0.0049
 1855UNK    H0216689  23.905   4.994   6.608 -2.0111  0.4670 -0.5615
 1855UNK    C0316690  23.892   4.784   6.569  0.0943 -0.4945 -0.5149
 1855UNK    C0416691  23.794   4.703   6.491 -0.3917  0.2810  0.6564
 1855UNK    F0516692  23.754   4.767   6.383 -0.2507  0.0476 -0.6646
 1855UNK    F0616693  23.853   4.587   6.462  0.5138  0.0546  0.0271
 1855UNK    F0716694  23.688   4.674   6.568  0.0096 -0.0979  0.0321
 1855UNK    H0816695  23.991   4.741   6.574 -0.3862 -1.9023 -2.3908
 1856UNK    F0016696  19.181   2.354   9.443  0.5156 -0.3381  0.2786
 1856UNK    C0116697  19.278   2.348   9.534 -0.2575  0.2513  0.3064
 1856UNK    H0216698  19.344   2.434   9.523 -0.1008  0.0951  0.0034
 1856UNK    C0316699  19.287   2.241   9.618 -0.0841 -0.5764  0.0229
 1856UNK    C0416700  19.346   2.243   9.752  0.5496  0.0340  0.0052
 1856UNK    F0516701  19.248   2.241   9.846  0.0719 -0.1931 -0.3283
 1856UNK    F0616702  19.432   2.138   9.780 -0.1390  0.5642 -0.2064
 1856UNK    F0716703  19.413   2.357   9.771 -0.1904  0.4979  0.0438
 1856UNK    H0816704  19.204   2.172   9.617 -0.1241 -0.8282  5.6527
 1857UNK    F0016705  34.013   0.521  11.479  0.1380 -0.1935 -0.0897
 1857UNK    C0116706  33.907   0.495  11.556  0.6157 -0.2664 -0.1401
 1857UNK    H0216707  33.818   0.553  11.529  0.5019 -1.1091 -1.6135
 1857UNK    C0316708  33.913   0.414  11.662  0.9842  0.5136  0.6202
 1857UNK    C0416709  33.808   0.316  11.701  0.2014  0.5216 -0.2415
 1857UNK    F0516710  33.694   0.366  11.664 -0.2447  0.1039  0.4956
 1857UNK    F0616711  33.842   0.189  11.653  0.3733  0.1988 -0.5465
 1857UNK    F0716712  33.793   0.301  11.843  0.1591 -0.1241  0.3086
 1857UNK    H0816713  34.010   0.367  11.662  0.1447 -1.2911 -1.1504
 1858UNK    F0016714  44.952   0.305   1.635 -0.5468  0.7290  0.6960
 1858UNK    C0116715  44.875   0.417   1.628 -0.1844 -0.6080 -0.1605
 1858UNK    H0216716  44.934   0.508   1.613 -1.0832  0.5097  2.7661
 1858UNK    C0316717  44.747   0.408   1.588  0.2416  0.4207  0.3051
 1858UNK    C0416718  44.669   0.529   1.570  0.1462  0.7296  0.3880
 1858UNK    F0516719  44.537   0.512   1.556 -0.6885  0.7306  0.2230
 1858UNK    F0616720  44.686   0.599   1.683 -0.1669 -0.3252  0.8484
 1858UNK    F0716721  44.711   0.604   1.470  0.2370  0.1354  0.1291
 1858UNK    H0816722  44.713   0.325   1.527 -0.2521 -0.1472  1.3200
 1859UNK    F0016723  25.770   0.444   1.019  0.1435 -0.1450 -0.1680
 1859UNK    C0116724  25.870   0.410   0.933 -0.0023 -0.4468  0.0284
 1859UNK    H0216725  25.831   0.356   0.848  2.4187 -0.8748 -0.8604
 1859UNK    C0316726  25.990   0.461   0.944 -0.1966 -0.0312  0.9814
 1859UNK    C0416727  26.018   0.600   0.970  0.1978  0.3679 -0.3529
 1859UNK    F0516728  26.148   0.618   0.938 -0.5161  0.2489  0.0293
 1859UNK    F0616729  25.941   0.679   0.890 -0.4985 -0.6679 -0.1079
 1859UNK    F0716730  26.006   0.616   1.106 -0.0336 -0.0952  0.2811
 1859UNK    H0816731  26.061   0.416   0.875 -0.8762  0.2282  0.0984
 1860UNK    F0016732  50.448   1.719  10.522 -0.3759 -0.2224 -0.2078
 1860UNK    C0116733  50.441   1.825  10.602  0.1496 -0.8316 -0.4251
 1860UNK    H0216734  50.352   1.810  10.663  1.1631 -0.5242  1.1367
 1860UNK    C0316735  50.560   1.869  10.645 -0.5145  0.2596  0.3793
 1860UNK    C0416736  50.579   1.947  10.771 -0.3722  0.4871 -0.9303
 1860UNK    F0516737  50.488   2.033  10.802 -0.1715  0.1133 -0.2257
 1860UNK    F0616738  50.583   1.858  10.876 -0.0013 -0.5361 -0.3642
 1860UNK    F0716739  50.699   2.010  10.772 -0.2401  0.1628  0.3163
 1860UNK    H0816740  50.644   1.838  10.585 -1.5535 -0.6888 -0.6087
 1861UNK    F0016741   3.106   2.211  10.390 -0.4782  0.2403 -0.2875
 1861UNK    C0116742   3.206   2.130  10.405 -0.4356  0.2836  0.9741
 1861UNK    H0216743   3.284   2.152  10.332 -1.7296  0.4500 -0.3913
 1861UNK    C0316744   3.200   2.038  10.494 -0.1076  0.2007  0.0481
 1861UNK    C0416745   3.313   1.955  10.545  0.2970 -0.1656 -0.7233
 1861UNK    F0516746   3.346   1.868  10.448  0.4813 -0.1447  0.0763
 1861UNK    F0616747   3.420   2.038  10.576 -0.1662 -0.3680 -0.2155
 1861UNK    F0716748   3.288   1.875  10.655 -0.7016 -0.6178  0.3001
 1861UNK    H0816749   3.107   2.024  10.547 -1.0687 -0.8425 -1.8636
 1862UNK    F0016750  17.207   0.615  10.381  0.3319  0.0504 -0.8494
 1862UNK    C0116751  17.196   0.719  10.470  1.1686  0.5225 -0.0400
 1862UNK    H0216752  17.133   0.794  10.422 -1.1391  0.7885  3.2254
 1862UNK    C0316753  17.240   0.727  10.596  0.4248  0.6694  0.0174
 1862UNK    C0416754  17.184   0.827  10.691 -0.1049 -0.6878 -0.8726
 1862UNK    F0516755  17.056   0.787  10.701 -0.4668  0.5790 -0.7178
 1862UNK    F0616756  17.241   0.798  10.805  0.8398 -0.1443  0.7122
 1862UNK    F0716757  17.210   0.954  10.653 -0.2419  0.7536 -0.1104
 1862UNK    H0816758  17.318   0.659  10.627 -2.7123 -2.9663  0.2888
 1863UNK    F0016759  21.385   4.007  11.035  0.0251  0.2227  0.0424
 1863UNK    C0116760  21.371   3.875  11.055 -0.7692 -0.5461  0.5650
 1863UNK    H0216761  21.408   3.850  11.155  1.3952 -0.0756 -0.0935
 1863UNK    C0316762  21.332   3.791  10.959 -0.8277 -0.3913  0.1364
 1863UNK    C0416763  21.296   3.652  10.986  0.0681  0.3305 -0.4018
 1863UNK    F0516764  21.254   3.601  10.871 -0.2303 -0.5574 -0.1939
 1863UNK    F0616765  21.392   3.564  11.028 -0.0541  0.3484 -0.6078
 1863UNK    F0716766  21.201   3.654  11.080 -0.4142 -0.0041  0.0977
 1863UNK    H0816767  21.290   3.833  10.869 -1.0349  2.4008  1.4896
 1864UNK    F0016768  44.252   4.607   5.774 -0.1271  0.3121  0.1245
 1864UNK    C0116769  44.260   4.637   5.641 -0.6061 -0.4330 -0.2212
 1864UNK    H0216770  44.356   4.620   5.594  0.4105  2.4975  0.6793
 1864UNK    C0316771  44.150   4.669   5.583  0.5744 -0.2806 -0.3708
 1864UNK    C0416772  44.147   4.729   5.444 -0.8415  1.0883 -1.2709
 1864UNK    F0516773  44.022   4.751   5.407 -0.2229 -0.6180  0.6013
 1864UNK    F0616774  44.226   4.842   5.435  0.0767  0.2029  0.4853
 1864UNK    F0716775  44.207   4.646   5.351  0.6295 -0.3556  0.8958
 1864UNK    H0816776  44.056   4.674   5.638 -0.7033 -1.9092 -2.3371
 1865UNK    F0016777  25.006   1.342  11.317 -0.1881 -0.1306 -0.2441
 1865UNK    C0116778  25.000   1.334  11.452  0.1985 -0.4006 -0.3289
 1865UNK    H0216779  25.043   1.243  11.492 -1.2126 -0.9626 -0.0629
 1865UNK    C0316780  24.943   1.426  11.521  0.4430 -0.4898  0.6475
 1865UNK    C0416781  24.792   1.426  11.525 -0.2342  0.1718  0.5677
 1865UNK    F0516782  24.731   1.428  11.405  0.3672  0.1090  0.4901
 1865UNK    F0616783  24.755   1.311  11.587  0.5475  0.3097 -0.1051
 1865UNK    F0716784  24.746   1.545  11.579  0.2571  0.2004  0.2984
 1865UNK    H0816785  24.987   1.525  11.517  0.2385 -0.4057  0.4804
 1866UNK    F0016786  16.766   2.304   9.882 -0.3537 -0.2885  0.8018
 1866UNK    C0116787  16.649   2.368   9.864 -0.1171  1.8112  0.8900
 1866UNK    H0216788  16.625   2.380   9.759  8.7046  4.9908 -1.2605
 1866UNK    C0316789  16.563   2.346   9.965 -0.9225 -0.8553  0.4646
 1866UNK    C0416790  16.541   2.468  10.044 -0.9832  0.5402 -0.5294
 1866UNK    F0516791  16.480   2.553   9.967 -0.4170  0.1685 -0.3101
 1866UNK    F0616792  16.458   2.440  10.150  0.5578  0.1814  0.2515
 1866UNK    F0716793  16.664   2.503  10.111  0.4231 -0.1668 -0.3104
 1866UNK    H0816794  16.468   2.308   9.929 -0.3552 -1.0190 -0.9210
 1867UNK    F0016795  51.129   0.179   7.001 -0.0513 -0.6180 -0.3966
 1867UNK    C0116796  51.129   0.056   7.046  0.2906 -0.0024  0.1086
 1867UNK    H0216797  51.217   0.012   6.999  0.0574 -0.0009 -0.3281
 1867UNK    C0316798  51.015  -0.003   7.070 -0.4993  0.0972  0.1917
 1867UNK    C0416799  50.990  -0.142   7.021  0.0228  0.0389 -0.2936
 1867UNK    F0516800  50.859  -0.183   7.016  0.1320 -0.1276 -0.1330
 1867UNK    F0616801  51.039  -0.151   6.892 -0.0567 -0.1208 -0.2910
 1867UNK    F0716802  51.051  -0.229   7.098 -0.1343 -0.0277  0.0410
 1867UNK    H0816803  50.923   0.049   7.093 -0.4204  0.2507  0.1503
 1868UNK    F0016804  26.496   3.886  12.792  0.0703 -0.3764  0.2842
 1868UNK    C0116805  26.382   3.929  12.852 -0.3390  0.6893 -0.1267
 1868UNK    H0216806  26.365   3.874  12.944 -1.6147  0.8679 -0.2520
 1868UNK    C0316807  26.291   3.982  12.773 -0.4087  0.1618 -0.0967
 1868UNK    C0416808  26.207   4.101  12.808  0.7525  0.0522 -0.2652
 1868UNK    F0516809  26.265   4.222  12.783 -0.0803  0.7508  0.4817
 1868UNK    F0616810  26.089   4.105  12.742 -0.0239 -0.1284 -0.5126
 1868UNK    F0716811  26.165   4.091  12.938 -0.1164  0.1857 -0.2215
 1868UNK    H0816812  26.279   3.957  12.668 -0.9460  1.8554 -0.4473
 1869UNK    F0016813  22.185   3.761   5.485  0.0893  0.5272  0.0237
 1869UNK    C0116814  22.169   3.834   5.373  0.3866  0.9379 -0.2280
 1869UNK    H0216815  22.230   3.925   5.378 -0.1722  1.2478  1.3542
 1869UNK    C0316816  22.118   3.776   5.263  0.6036 -0.1724  0.0704
 1869UNK    C0416817  22.145   3.641   5.214  0.1309 -1.0240  0.0449
 1869UNK    F0516818  22.090   3.611   5.098  0.0852 -0.4185 -0.1698
 1869UNK    F0616819  22.276   3.634   5.180 -0.5658 -0.0164  0.1931
 1869UNK    F0716820  22.116   3.543   5.304  0.4476  0.5980 -0.5609
 1869UNK    H0816821  22.015   3.806   5.245  0.4227 -0.9042 -0.1423
 1870UNK    F0016822  44.091   0.431  12.770 -0.1486  0.4059 -0.3166
 1870UNK    C0116823  44.154   0.349  12.683 -0.0383  0.3369  0.4623
 1870UNK    H0216824  44.259   0.335  12.708  0.0538 -1.0612 -0.6551
 1870UNK    C0316825  44.076   0.259  12.625 -0.0787  0.2633  0.0837
 1870UNK    C0416826  44.131   0.142  12.552 -0.8596 -0.0527 -0.1001
 1870UNK    F0516827  44.165   0.042  12.641 -0.1875 -0.4917 -0.0660
 1870UNK    F0616828  44.043   0.091  12.469 -0.0351 -0.2744 -0.0325
 1870UNK    F0716829  44.242   0.181  12.487  0.1947  0.2193 -0.6027
 1870UNK    H0816830  43.980   0.235  12.668 -0.9056 -0.4899 -2.1041
 1871UNK    F0016831   7.015   2.589   4.540  0.2603 -0.1155  0.2772
 1871UNK    C0116832   7.118   2.543   4.472  0.5615 -1.0522 -0.0959
 1871UNK    H0216833   7.207   2.606   4.478 -1.5441  1.9208  1.3264
 1871UNK    C0316834   7.100   2.434   4.395 -0.2137 -0.0677  0.3377
 1871UNK    C0416835   7.221   2.367   4.344 -0.2604  0.6771  0.0555
 1871UNK    F0516836   7.330   2.366   4.433  0.1534 -0.3752  0.1762
 1871UNK    F0616837   7.213   2.238   4.318 -0.4514 -0.3046  0.5311
 1871UNK    F0716838   7.263   2.433   4.231 -0.1109  0.0647 -0.0444
 1871UNK    H0816839   7.008   2.427   4.339  1.4111 -4.4467 -2.0336
 1872UNK    F0016840   6.495   5.120  13.960  0.5250 -0.0411 -0.2075
 1872UNK    C0116841   6.555   5.037  14.042 -0.5006 -0.5154  0.3723
 1872UNK    H0216842   6.498   4.946  14.061 -1.3545 -0.1207 -0.2515
 1872UNK    C0316843   6.686   5.052  14.043 -0.2705 -0.6840 -0.4327
 1872UNK    C0416844   6.783   5.004  14.145 -0.0684  0.3291  0.1127
 1872UNK    F0516845   6.759   5.053  14.267  0.2792  0.1336 -0.1657
 1872UNK    F0616846   6.780   4.868  14.151 -0.0548 -0.6401 -0.1993
 1872UNK    F0716847   6.911   5.022  14.103 -0.3687  0.0846  0.4105
 1872UNK    H0816848   6.735   5.073  13.950 -0.8390  0.9762 -0.3708
 1873UNK    F0016849  13.594   4.262  13.693  0.2238 -0.3489  0.1770
 1873UNK    C0116850  13.489   4.225  13.771 -1.0876 -0.4772 -0.5602
 1873UNK    H0216851  13.395   4.252  13.723 -0.3698  0.7858 -1.2857
 1873UNK    C0316852  13.512   4.230  13.900  0.4772  0.9985  0.9795
 1873UNK    C0416853  13.443   4.135  13.982 -0.4054  0.3374  0.1596
 1873UNK    F0516854  13.488   4.013  13.971  0.1015 -0.1806  0.1083
 1873UNK    F0616855  13.450   4.172  14.111  0.0080 -0.1440  0.6072
 1873UNK    F0716856  13.312   4.135  13.956 -0.3025  0.1147  0.0535
 1873UNK    H0816857  13.535   4.315  13.961  0.8150  0.6042  1.4044
 1874UNK    F0016858  40.305   3.418   3.913  0.3955 -0.1837  0.2724
 1874UNK    C0116859  40.177   3.467   3.918  0.4168  0.2059  0.2343
 1874UNK    H0216860  40.151   3.498   4.020  2.6458 -0.1210  0.9161
 1874UNK    C0316861  40.103   3.460   3.811 -0.4102 -0.3860  0.2596
 1874UNK    C0416862  39.990   3.546   3.768 -0.3030 -0.6139 -0.6578
 1874UNK    F0516863  39.897   3.554   3.862  0.0356 -0.3781 -0.1828
 1874UNK    F0616864  40.050   3.670   3.761 -0.2913  0.6169  0.1436
 1874UNK    F0716865  39.930   3.505   3.660 -0.5959 -0.6857 -0.5457
 1874UNK    H0816866  40.151   3.421   3.722 -0.5681 -1.0487  0.4618
 1875UNK    F0016867  15.307   4.970  11.215  0.3485  0.1279 -0.0480
 1875UNK    C0116868  15.439   5.004  11.206 -0.1369 -0.3415  0.1657
 1875UNK    H0216869  15.455   5.091  11.270  0.3598 -0.1605 -0.2067
 1875UNK    C0316870  15.524   4.935  11.138 -0.1999 -1.4648 -0.0457
 1875UNK    C0416871  15.538   4.788  11.128 -0.1766 -0.0513 -0.8674
 1875UNK    F0516872  15.664   4.762  11.096  0.0011 -0.0160 -0.4139
 1875UNK    F0616873  15.509   4.725  11.243 -0.0912  0.1056 -0.0614
 1875UNK    F0716874  15.457   4.739  11.028 -0.0679 -0.7434 -0.0087
 1875UNK    H0816875  15.580   4.987  11.062 -0.9062 -1.2120 -0.3898
 1876UNK    F0016876   4.602   4.988   5.615  0.3026  0.0758 -0.0954
 1876UNK    C0116877   4.671   4.897   5.682 -0.1671  0.3130 -0.1509
 1876UNK    H0216878   4.622   4.871   5.776 -0.3155  0.8251 -0.0884
 1876UNK    C0316879   4.784   4.857   5.631  0.4497 -0.7800 -0.7817
 1876UNK    C0416880   4.845   4.723   5.648 -0.6954  0.3672 -0.0105
 1876UNK    F0516881   4.818   4.629   5.552  0.4538 -0.4456  0.1811
 1876UNK    F0616882   4.977   4.734   5.641 -0.5272 -0.3892  0.0309
 1876UNK    F0716883   4.812   4.672   5.767  0.4396  0.3851  0.4526
 1876UNK    H0816884   4.840   4.920   5.564  3.2191 -0.5783  1.5805
 1877UNK    F0016885  29.865   4.093   6.383  0.2528 -0.1467  0.0643
 1877UNK    C0116886  29.890   4.221   6.393  0.0517  0.7350  0.3694
 1877UNK    H0216887  29.950   4.252   6.308 -2.6348 -1.6979 -2.5461
 1877UNK    C0316888  29.868   4.268   6.518  0.0222  0.4096 -0.1627
 1877UNK    C0416889  29.968   4.255   6.624 -0.0739  0.4560 -0.5176
 1877UNK    F0516890  29.905   4.266   6.746 -0.2080  0.3864  0.2306
 1877UNK    F0616891  30.051   4.145   6.630  0.0367 -0.1371 -0.3288
 1877UNK    F0716892  30.059   4.358   6.622  0.1296 -0.5483  0.8331
 1877UNK    H0816893  29.772   4.301   6.555  1.5032  0.5245  3.8780
 1878UNK    F0016894   8.061   2.768  10.086 -0.2485  0.1609  0.6988
 1878UNK    C0116895   8.033   2.703   9.967 -0.2181  0.4710 -0.0876
 1878UNK    H0216896   8.110   2.744   9.902  1.4619  2.0911  2.8124
 1878UNK    C0316897   7.911   2.667   9.924  0.1435  0.2559 -0.4862
 1878UNK    C0416898   7.890   2.565   9.821  0.5441 -0.0077 -0.3523
 1878UNK    F0516899   7.993   2.588   9.735  0.1079  0.2830  0.0607
 1878UNK    F0616900   7.876   2.438   9.872 -0.4657 -0.3188 -0.2511
 1878UNK    F0716901   7.771   2.579   9.753  0.2190 -0.7702  0.3098
 1878UNK    H0816902   7.824   2.687   9.984  1.9452  2.1814  1.5991
 1879UNK    F0016903  50.851   3.514   4.096  0.0041  0.1008  0.0302
 1879UNK    C0116904  50.911   3.551   3.981  0.4950  0.2953 -0.4088
 1879UNK    H0216905  50.924   3.657   3.963  0.2797  0.1296 -1.5576
 1879UNK    C0316906  50.967   3.451   3.911  0.1579 -0.1937 -0.3355
 1879UNK    C0416907  50.921   3.396   3.782 -0.2367 -0.0435 -0.9377
 1879UNK    F0516908  50.983   3.279   3.758 -0.6309  0.6203  0.5738
 1879UNK    F0616909  50.787   3.381   3.773  0.4105  0.1848  0.3408
 1879UNK    F0716910  50.961   3.471   3.680  0.0822  0.1256 -0.5419
 1879UNK    H0816911  51.050   3.397   3.955 -0.7447 -0.6636  0.8456
 1880UNK    F0016912   8.067   1.399   2.454  1.1121 -0.1238 -0.6427
 1880UNK    C0116913   8.154   1.450   2.359  0.0881 -0.3903  0.4156
 1880UNK    H0216914   8.106   1.538   2.315  2.7157 -0.0830 -2.0139
 1880UNK    C0316915   8.231   1.370   2.287  0.4573  0.7828 -0.4657
 1880UNK    C0416916   8.181   1.283   2.180 -0.5418 -0.4104  0.7820
 1880UNK    F0516917   8.054   1.236   2.202 -0.4095 -0.8508  0.1364
 1880UNK    F0616918   8.182   1.341   2.054  0.3934  0.6973 -0.8773
 1880UNK    F0716919   8.280   1.191   2.165 -0.3316  0.4655  0.1329
 1880UNK    H0816920   8.339   1.367   2.297  0.1434 -0.0976  3.1806
 1881UNK    F0016921  52.008   4.257   1.693  0.0044 -0.1164  0.0784
 1881UNK    C0116922  52.106   4.263   1.784 -0.6483  0.4712 -0.4516
 1881UNK    H0216923  52.060   4.271   1.883  2.5868 -0.7089  1.1890
 1881UNK    C0316924  52.213   4.333   1.756  0.2975 -0.7823 -0.0792
 1881UNK    C0416925  52.335   4.343   1.846 -0.2051 -0.3731  0.1140
 1881UNK    F0516926  52.287   4.363   1.970  0.4008 -0.0215 -0.0193
 1881UNK    F0616927  52.399   4.221   1.844  0.1096 -0.1108 -0.3925
 1881UNK    F0716928  52.417   4.445   1.816 -0.0182 -0.2307 -0.1141
 1881UNK    H0816929  52.192   4.412   1.686 -0.8437 -0.1437  0.9649
 1882UNK    F0016930  41.732   2.991   2.370 -0.3882 -0.4801 -0.1111
 1882UNK    C0116931  41.606   2.977   2.411  0.7598  1.0651  0.0670
 1882UNK    H0216932  41.535   3.003   2.332  0.6594 -1.6121 -0.7986
 1882UNK    C0316933  41.579   2.905   2.521  0.0447  0.9841 -0.3810
 1882UNK    C0416934  41.459   2.819   2.518  0.2049  0.1185 -0.0260
 1882UNK    F0516935  41.440   2.767   2.643 -0.1135 -0.3320  0.2666
 1882UNK    F0616936  41.339   2.882   2.482 -0.3074 -0.2357  0.2552
 1882UNK    F0716937  41.481   2.721   2.438  0.4246 -0.2718 -0.0771
 1882UNK    H0816938  41.653   2.834   2.556 -0.1258  1.7007  1.5007
 1883UNK    F0016939  36.724   4.048   6.446 -0.4703 -0.1600 -0.2004
 1883UNK    C0116940  36.607   3.984   6.469  0.1665 -0.5686 -0.5664
 1883UNK    H0216941  36.541   4.069   6.489  1.3565  1.0078 -3.0651
 1883UNK    C0316942  36.578   3.864   6.420 -0.3104 -0.4030 -0.4107
 1883UNK    C0416943  36.458   3.828   6.340  0.3383 -0.4998  1.5410
 1883UNK    F0516944  36.456   3.895   6.219  0.7894  0.5801 -0.3172
 1883UNK    F0616945  36.511   3.716   6.295 -0.9155  0.0441  0.3813
 1883UNK    F0716946  36.350   3.834   6.416  0.8762  0.0657 -0.4011
 1883UNK    H0816947  36.612   3.781   6.480  0.5426  1.9904  2.5700
 1884UNK    F0016948  48.149   0.166   6.586 -0.1538 -0.4860 -0.1057
 1884UNK    C0116949  48.148   0.152   6.722 -0.5420  0.2201 -0.5954
 1884UNK    H0216950  48.048   0.127   6.758  0.0639  1.1105  1.8153
 1884UNK    C0316951  48.262   0.124   6.791 -0.3153  0.2753  0.0458
 1884UNK    C0416952  48.254   0.099   6.935  0.4280  0.0159 -0.2354
 1884UNK    F0516953  48.374   0.081   7.001 -0.4002  0.0755 -0.0021
 1884UNK    F0616954  48.188   0.202   6.993 -0.1988  0.2557  0.4322
 1884UNK    F0716955  48.181  -0.010   6.974 -0.3050 -0.1378  0.3030
 1884UNK    H0816956  48.346   0.076   6.742 -0.6798 -1.4133  1.0369
 1885UNK    F0016957  37.593   1.598   8.436  0.0239  0.3608 -0.3935
 1885UNK    C0116958  37.614   1.525   8.327 -0.4875  0.1123  0.2046
 1885UNK    H0216959  37.604   1.581   8.234  0.3705 -0.9657 -0.5416
 1885UNK    C0316960  37.675   1.404   8.350 -0.6072 -0.1193  0.3253
 1885UNK    C0416961  37.731   1.322   8.244 -0.3639 -0.5325  0.1592
 1885UNK    F0516962  37.751   1.197   8.290 -0.3885 -0.3286 -0.1277
 1885UNK    F0616963  37.624   1.316   8.160 -0.1124  0.2823 -0.1727
 1885UNK    F0716964  37.837   1.388   8.183 -0.1639  0.1562 -0.2955
 1885UNK    H0816965  37.726   1.385   8.443  0.5109  0.9628 -0.0409
 1886UNK    F0016966  29.057   1.757  12.141 -0.0605  0.2833  0.5511
 1886UNK    C0116967  28.971   1.839  12.075  0.6768  0.2571 -0.2748
 1886UNK    H0216968  28.989   1.851  11.969  0.7898  0.6500 -0.2123
 1886UNK    C0316969  28.855   1.855  12.137 -0.3481 -0.5276  0.4139
 1886UNK    C0416970  28.727   1.908  12.088 -0.3627 -0.0936 -0.3962
 1886UNK    F0516971  28.739   2.021  12.019  0.3311  0.3547  0.4062
 1886UNK    F0616972  28.677   1.805  12.012  0.0945  0.1051 -0.4892
 1886UNK    F0716973  28.643   1.943  12.192  0.1314  0.6822  0.5551
 1886UNK    H0816974  28.842   1.782  12.216  0.5110 -0.8605  0.2550
 1887UNK    F0016975  23.110   2.942   6.724  0.1726  0.0907  0.1186
 1887UNK    C0116976  23.008   3.022   6.761  0.2744  0.4016 -0.2966
 1887UNK    H0216977  22.948   2.980   6.842  0.2782 -0.7352 -0.8805
 1887UNK    C0316978  22.954   3.100   6.662 -0.0410  0.7628  0.0419
 1887UNK    C0416979  22.891   3.045   6.545  0.2617 -0.4769 -0.0750
 1887UNK    F0516980  22.836   3.138   6.474 -0.0553  0.2391 -0.0334
 1887UNK    F0616981  22.970   2.971   6.466  0.1578 -0.0239 -0.2255
 1887UNK    F0716982  22.789   2.967   6.593 -0.0261  0.2834  0.4227
 1887UNK    H0816983  22.918   3.200   6.680  1.0355  1.0303  0.7105
 1888UNK    F0016984   1.198   2.519   1.200  0.1495 -0.1495  0.1185
 1888UNK    C0116985   1.124   2.546   1.091  0.4108  0.7735 -0.0408
 1888UNK    H0216986   1.054   2.627   1.108  2.5688  2.4940  1.0210
 1888UNK    C0316987   1.192   2.507   0.979  0.8848  0.3750  0.7934
 1888UNK    C0416988   1.118   2.450   0.868  0.1556 -0.0001  0.6624
 1888UNK    F0516989   1.195   2.407   0.764 -0.6524  0.0844 -0.6808
 1888UNK    F0616990   1.045   2.339   0.906 -0.3190 -0.2783  0.3023
 1888UNK    F0716991   1.022   2.541   0.832  0.1364 -0.1490 -0.2836
 1888UNK    H0816992   1.293   2.471   0.994  0.8969 -0.2005 -0.5526
 1889UNK    F0016993  10.664   2.979   2.260  0.4211  0.4051  0.0337
 1889UNK    C0116994  10.705   3.049   2.364 -0.1234  0.6871 -0.7171
 1889UNK    H0216995  10.689   3.156   2.355  2.6415  1.4652  2.4085
 1889UNK    C0316996  10.803   3.001   2.439 -0.1085  0.1685 -0.8688
 1889UNK    C0416997  10.838   3.056   2.574  0.4754  0.1387  0.0681
 1889UNK    F0516998  10.957   3.018   2.615  0.1328 -0.2957 -0.7644
 1889UNK    F0616999  10.845   3.192   2.565 -0.0371 -0.2838 -0.0509
 1889UNK    F0717000  10.742   3.046   2.668 -0.5296  0.0820 -0.2898
 1889UNK    H0817001  10.836   2.900   2.418 -1.4782 -0.6698  0.8886
 1890UNK    F0017002  32.674   2.687   6.130 -0.1280  0.3845 -0.2262
 1890UNK    C0117003  32.556   2.622   6.138 -0.3554  0.1032  0.7811
 1890UNK    H0217004  32.547   2.578   6.237  3.6644 -1.7080  0.4305
 1890UNK    C0317005  32.498   2.591   6.023 -0.1470  0.6354 -0.2828
 1890UNK    C0417006  32.353   2.595   6.006 -0.0949 -0.3740  0.2786
 1890UNK    F0517007  32.316   2.500   5.918  1.0956 -0.2511  0.4618
 1890UNK    F0617008  32.292   2.573   6.125  0.1475 -0.3810  0.1371
 1890UNK    F0717009  32.314   2.723   5.961 -0.2080  0.0414  0.4174
 1890UNK    H0817010  32.554   2.596   5.931 -1.9673  0.3458 -1.4458
 1891UNK    F0017011  14.281   0.151   2.573  0.0831  0.1243  0.0533
 1891UNK    C0117012  14.352   0.047   2.530 -1.2714 -0.5518 -0.7145
 1891UNK    H0217013  14.381  -0.024   2.607 -0.9056  0.9516  0.5842
 1891UNK    C0317014  14.409   0.045   2.413 -0.3479 -1.1251  0.1136
 1891UNK    C0417015  14.427  -0.081   2.348  0.7355 -0.1808  0.2015
 1891UNK    F0517016  14.515  -0.090   2.240 -0.7891  0.0488 -0.1177
 1891UNK    F0617017  14.467  -0.178   2.438  0.8017  0.4907  0.0288
 1891UNK    F0717018  14.307  -0.122   2.299 -0.1479  0.1701  0.1597
 1891UNK    H0817019  14.395   0.123   2.340  1.2505 -2.4986 -1.7613
 1892UNK    F0017020  36.129   1.030   0.308  0.3855  0.6900 -0.3159
 1892UNK    C0117021  36.034   0.937   0.298 -0.0478  0.4438 -0.6447
 1892UNK    H0217022  35.941   0.982   0.262  0.4561  0.5500 -1.8110
 1892UNK    C0317023  36.047   0.817   0.359  0.1013 -0.9030  0.3838
 1892UNK    C0417024  35.961   0.702   0.331  0.8376 -0.1501 -1.3964
 1892UNK    F0517025  35.836   0.736   0.284 -0.4466  0.3378 -0.2512
 1892UNK    F0617026  36.011   0.629   0.226 -0.3987 -0.0591 -0.5034
 1892UNK    F0717027  35.938   0.617   0.439 -0.1660  0.5080  0.6020
 1892UNK    H0817028  36.151   0.791   0.375  0.7344 -0.5232 -2.7076
 1893UNK    F0017029  48.815   3.706   5.770 -0.3780 -0.1543 -0.0576
 1893UNK    C0117030  48.867   3.825   5.800  0.5162  0.4234 -0.8307
 1893UNK    H0217031  48.792   3.886   5.849 -0.4961 -1.5632  0.1673
 1893UNK    C0317032  48.997   3.842   5.824 -1.1944 -0.2186  0.1834
 1893UNK    C0417033  49.054   3.958   5.896 -0.0201 -0.2937 -0.7570
 1893UNK    F0517034  49.064   3.946   6.027 -0.3704  0.1702  0.4781
 1893UNK    F0617035  49.170   4.006   5.851  1.0534 -0.5193  0.4938
 1893UNK    F0717036  48.966   4.059   5.883  0.0139  1.0037 -0.1372
 1893UNK    H0817037  49.049   3.749   5.837 -0.3516  0.0127 -1.3899
 1894UNK    F0017038  10.058   3.064   1.322  0.4399 -0.1436 -0.4709
 1894UNK    C0117039  10.038   3.194   1.281 -0.2125 -0.2758 -0.3434
 1894UNK    H0217040  10.118   3.248   1.333 -0.6263  1.3323 -1.3562
 1894UNK    C0317041  10.010   3.205   1.150  0.2163 -0.2818  0.5225
 1894UNK    C0417042   9.991   3.337   1.073 -0.4766  0.1008 -0.1097
 1894UNK    F0517043   9.961   3.441   1.150 -0.1605  0.2975 -0.7264
 1894UNK    F0617044  10.101   3.372   1.003 -0.0304  0.0521 -0.1899
 1894UNK    F0717045   9.887   3.324   0.988 -0.2552 -0.0533  0.2091
 1894UNK    H0817046  10.035   3.128   1.079 -0.7792 -0.1069 -0.0259
 1895UNK    F0017047  44.485   5.168   4.306 -0.3907 -1.0871 -0.2074
 1895UNK    C0117048  44.399   5.201   4.403  0.1938  0.2006  0.0737
 1895UNK    H0217049  44.351   5.299   4.399 -1.6528 -0.7243 -1.0977
 1895UNK    C0317050  44.369   5.105   4.494 -0.7844 -0.5993  0.2736
 1895UNK    C0417051  44.269   5.115   4.602  1.0729 -0.0940  0.8387
 1895UNK    F0517052  44.165   5.040   4.564 -0.5449 -0.1250  0.2441
 1895UNK    F0617053  44.329   5.089   4.715 -0.2908 -0.2559 -0.0154
 1895UNK    F0717054  44.237   5.247   4.624  0.0603  0.1785  0.0339
 1895UNK    H0817055  44.446   5.033   4.517 -0.3301 -0.7406 -1.6056
 1896UNK    F0017056  22.719   3.575   9.158  0.4311  0.6110 -0.0245
 1896UNK    C0117057  22.649   3.544   9.263 -0.0610  0.3964 -0.3487
 1896UNK    H0217058  22.704   3.472   9.324 -1.4554  0.7506  1.3761
 1896UNK    C0317059  22.541   3.610   9.298  0.3741  0.2557 -0.2029
 1896UNK    C0417060  22.463   3.576   9.421  0.1046  0.1461  0.3321
 1896UNK    F0517061  22.455   3.448   9.451  0.2008 -0.0329 -0.2810
 1896UNK    F0617062  22.521   3.640   9.523 -0.2458  0.5440 -0.0336
 1896UNK    F0717063  22.340   3.635   9.415  0.1450 -0.1604  0.2950
 1896UNK    H0817064  22.513   3.696   9.238 -0.0947  0.5516  0.4321
 1897UNK    F0017065  45.296   3.043   4.595  0.0585 -0.4358 -0.2356
 1897UNK    C0117066  45.323   2.928   4.525 -0.7252 -0.1405 -0.5873
 1897UNK    H0217067  45.431   2.916   4.525 -0.5168  1.5218 -2.1733
 1897UNK    C0317068  45.230   2.869   4.456  0.2397  0.0648  0.6680
 1897UNK    C0417069  45.241   2.723   4.432  0.0671 -0.0353  0.2295
 1897UNK    F0517070  45.247   2.706   4.302  0.1170 -0.2440  0.0524
 1897UNK    F0617071  45.344   2.665   4.502 -0.1734  0.6359  0.4334
 1897UNK    F0717072  45.120   2.666   4.476  0.1875 -0.3817  0.1235
 1897UNK    H0817073  45.129   2.903   4.438  0.2237 -0.9583 -1.1938
 1898UNK    F0017074  41.414   2.526   9.963  0.2274  0.0613  0.1470
 1898UNK    C0117075  41.355   2.480   9.855  0.3064 -0.3352 -0.6787
 1898UNK    H0217076  41.394   2.538   9.771 -1.1468  1.6673  0.0117
 1898UNK    C0317077  41.241   2.401   9.859  0.5217 -0.4115 -0.0264
 1898UNK    C0417078  41.176   2.377   9.734  0.0316  0.4988 -0.3862
 1898UNK    F0517079  41.243   2.289   9.659  0.3372 -0.2950 -0.4781
 1898UNK    F0617080  41.045   2.326   9.742 -0.3505  0.0551 -0.2486
 1898UNK    F0717081  41.166   2.493   9.661 -0.2664 -0.0188 -0.1960
 1898UNK    H0817082  41.177   2.419   9.944 -0.9610 -1.7628 -0.8317
 1899UNK    F0017083  19.079   4.437  10.498 -0.0440  0.1567 -0.1037
 1899UNK    C0117084  19.044   4.547  10.432  0.5440  0.6337 -0.5046
 1899UNK    H0217085  19.008   4.524  10.332 -3.9052  0.4514  1.0351
 1899UNK    C0317086  19.114   4.655  10.462  0.7685 -0.3022 -0.4782
 1899UNK    C0417087  19.086   4.797  10.436  1.0460 -0.4143 -0.7250
 1899UNK    F0517088  19.207   4.854  10.462 -0.3035 -0.4143  1.3020
 1899UNK    F0617089  19.043   4.797  10.304 -0.5498  0.2372 -0.1633
 1899UNK    F0717090  19.004   4.841  10.531  0.5184  0.2440 -0.2701
 1899UNK    H0817091  19.196   4.638  10.529  0.0576 -2.2315 -0.0752
 1900UNK    F0017092   0.444   0.054   9.343 -0.2665  0.1122  0.4824
 1900UNK    C0117093   0.476  -0.076   9.376  0.1440  0.5088 -0.5126
 1900UNK    H0217094   0.478  -0.138   9.286  0.9910  1.4020 -1.1276
 1900UNK    C0317095   0.459  -0.127   9.499  0.0039  0.3007  0.8443
 1900UNK    C0417096   0.518  -0.253   9.546  0.3810 -0.8815  0.6629
 1900UNK    F0517097   0.470  -0.275   9.667  0.3311 -0.3132  0.1099
 1900UNK    F0617098   0.481  -0.364   9.469  0.4917  0.5494  0.5233
 1900UNK    F0717099   0.653  -0.254   9.532  0.8308  0.7518 -0.1212
 1900UNK    H0817100   0.388  -0.084   9.568  0.3379 -1.4002  2.2786
 1901UNK    F0017101   0.526   2.276  13.497 -0.5231 -0.1080  0.0805
 1901UNK    C0117102   0.493   2.145  13.508  0.0695  0.0393 -0.1431
 1901UNK    H0217103   0.492   2.133  13.616 -2.8863 -4.3931 -0.5293
 1901UNK    C0317104   0.402   2.084  13.430 -0.7276 -0.0082 -0.0443
 1901UNK    C0417105   0.315   1.980  13.488  0.6728  0.4573 -0.2999
 1901UNK    F0517106   0.374   1.889  13.569  0.1582  0.1916 -0.1078
 1901UNK    F0617107   0.226   2.037  13.568  0.2094  0.2659 -0.2522
 1901UNK    F0717108   0.243   1.921  13.391 -0.2895  0.2122 -0.0405
 1901UNK    H0817109   0.412   2.078  13.323 -0.6801  1.1537 -0.1104
 1902UNK    F0017110  18.280   1.651   4.759  0.0771  0.5824 -0.3150
 1902UNK    C0117111  18.316   1.686   4.635  1.1130  0.4574 -0.8514
 1902UNK    H0217112  18.401   1.752   4.654 -0.1428  1.5260  1.3083
 1902UNK    C0317113  18.328   1.577   4.557 -1.0820 -0.1615 -0.4914
 1902UNK    C0417114  18.397   1.573   4.426  0.5382  0.5711 -0.4941
 1902UNK    F0517115  18.510   1.644   4.425 -0.2878  0.0421  0.8004
 1902UNK    F0617116  18.427   1.453   4.392  0.4200  0.5140  0.2150
 1902UNK    F0717117  18.304   1.622   4.334 -0.2512  0.0387  0.2646
 1902UNK    H0817118  18.298   1.482   4.596  0.9010 -0.3560  0.6530
 1903UNK    F0017119  40.305   4.365   1.590  0.4976 -0.3671  0.4798
 1903UNK    C0117120  40.423   4.423   1.626  0.2661 -0.2299  0.1479
 1903UNK    H0217121  40.441   4.429   1.733  2.0793  3.2258 -0.2708
 1903UNK    C0317122  40.516   4.426   1.537  0.3453 -0.2979  0.2565
 1903UNK    C0417123  40.650   4.477   1.573 -0.3164 -0.4867  0.5276
 1903UNK    F0517124  40.701   4.402   1.670 -0.3482 -0.6929 -0.5127
 1903UNK    F0617125  40.742   4.481   1.472  0.2056 -0.3033  0.2373
 1903UNK    F0717126  40.638   4.609   1.610  0.6066 -0.2870 -0.4919
 1903UNK    H0817127  40.518   4.341   1.471 -3.0828 -0.8223  0.7270
 1904UNK    F0017128   4.027   3.394   7.597  0.6874  0.2506 -0.1710
 1904UNK    C0117129   4.040   3.506   7.673  0.2925 -0.0615  0.0718
 1904UNK    H0217130   4.054   3.483   7.778  2.1760 -3.7499 -0.8900
 1904UNK    C0317131   4.022   3.635   7.628  0.4370 -0.4036 -0.2115
 1904UNK    C0417132   4.058   3.753   7.707  0.0303 -1.3296  0.5491
 1904UNK    F0517133   3.962   3.848   7.679  0.7635 -0.1809  0.0793
 1904UNK    F0617134   4.034   3.738   7.843 -0.2314  0.3400 -0.4292
 1904UNK    F0717135   4.183   3.805   7.687  0.0302 -0.7887 -0.6735
 1904UNK    H0817136   3.981   3.656   7.531 -1.0956  0.6335  0.6402
 1905UNK    F0017137  41.728   2.690   6.746 -0.0928  0.4910  0.2444
 1905UNK    C0117138  41.706   2.619   6.858  0.0828 -0.2094 -0.1349
 1905UNK    H0217139  41.656   2.683   6.930  2.6721  2.1461 -0.3723
 1905UNK    C0317140  41.786   2.513   6.896  0.5181 -0.1032 -0.3481
 1905UNK    C0417141  41.801   2.457   7.034 -0.4307 -0.8833  0.4715
 1905UNK    F0517142  41.831   2.543   7.129  0.1377  0.2894 -0.7310
 1905UNK    F0617143  41.687   2.397   7.069 -0.0594  0.2945 -0.5263
 1905UNK    F0717144  41.886   2.351   7.048  0.1443 -0.0616 -0.9577
 1905UNK    H0817145  41.876   2.505   6.838  0.1068 -1.1494 -0.8653
 1906UNK    F0017146   9.124   1.648   8.120  0.0448 -0.2056  0.6018
 1906UNK    C0117147   9.072   1.532   8.079  0.2211 -0.1089 -0.3244
 1906UNK    H0217148   9.105   1.439   8.123  1.6027 -0.0330 -1.1795
 1906UNK    C0317149   8.953   1.552   8.017 -0.2645  0.5894  0.4243
 1906UNK    C0417150   8.857   1.440   8.005 -0.2833  0.6660 -0.0310
 1906UNK    F0517151   8.762   1.447   8.096  0.1076 -0.2026 -0.1758
 1906UNK    F0617152   8.794   1.442   7.886 -0.2645 -0.1494  0.6780
 1906UNK    F0717153   8.916   1.321   8.025  0.9584  0.6439  0.1826
 1906UNK    H0817154   8.931   1.637   7.954 -0.7085  1.5934  1.9152
 1907UNK    F0017155  22.237   1.002   7.648 -0.1000  0.0331  0.4256
 1907UNK    C0117156  22.164   1.104   7.690  0.1286  0.0811  0.2374
 1907UNK    H0217157  22.123   1.166   7.609  0.2985 -1.1926 -0.8337
 1907UNK    C0317158  22.145   1.135   7.819 -0.0210  0.7348  0.3824
 1907UNK    C0417159  22.036   1.219   7.874  0.5675 -0.2963  0.2870
 1907UNK    F0517160  21.918   1.155   7.870  0.2896 -0.0293 -0.4011
 1907UNK    F0617161  22.065   1.238   8.009  0.4542  0.0845  0.7733
 1907UNK    F0717162  22.011   1.330   7.804 -0.2219 -0.3194 -0.2775
 1907UNK    H0817163  22.218   1.101   7.891  1.1069 -1.2064 -1.6372
 1908UNK    F0017164  43.633   2.193   6.228 -0.3650  0.0204  0.6951
 1908UNK    C0117165  43.695   2.121   6.323 -0.7273 -0.0355 -0.0722
 1908UNK    H0217166  43.707   2.014   6.307  3.4527  0.1008  1.5854
 1908UNK    C0317167  43.773   2.179   6.412 -0.0681  0.2094 -0.6747
 1908UNK    C0417168  43.894   2.111   6.468 -0.5061 -0.4432  0.5674
 1908UNK    F0517169  43.856   1.982   6.476  0.2929 -0.5085  0.2661
 1908UNK    F0617170  44.004   2.114   6.380 -1.4213  0.0570 -0.0874
 1908UNK    F0717171  43.935   2.163   6.583  0.1117 -0.2407  0.0536
 1908UNK    H0817172  43.779   2.284   6.389  1.7042  0.0794 -0.9055
 1909UNK    F0017173  42.624   0.672   9.075  0.2524  0.5591  0.7402
 1909UNK    C0117174  42.665   0.548   9.054 -0.6092 -0.2628  1.0065
 1909UNK    H0217175  42.686   0.537   8.948 -0.3863 -1.4960  1.1643
 1909UNK    C0317176  42.632   0.457   9.142  0.2628 -0.4090  0.4856
 1909UNK    C0417177  42.683   0.317   9.139  0.1157  1.0370 -0.1355
 1909UNK    F0517178  42.587   0.238   9.186  0.2318 -0.1447  0.2310
 1909UNK    F0617179  42.711   0.270   9.012 -0.1277  0.0072 -0.1643
 1909UNK    F0717180  42.794   0.296   9.214 -0.2032  0.1383  0.0489
 1909UNK    H0817181  42.577   0.487   9.230  0.7430  0.8063  0.3835
 1910UNK    F0017182  35.113   3.313   6.544 -0.2570 -0.0560 -0.2082
 1910UNK    C0117183  35.227   3.379   6.560 -0.2239  0.1024 -0.2982
 1910UNK    H0217184  35.202   3.473   6.611 -1.1576  0.2149 -0.9497
 1910UNK    C0317185  35.324   3.376   6.470  0.3545 -0.3497  0.0199
 1910UNK    C0417186  35.458   3.417   6.494  0.0284 -0.0936 -0.6504
 1910UNK    F0517187  35.528   3.448   6.385  0.5234 -0.3063 -0.2717
 1910UNK    F0617188  35.467   3.524   6.575 -0.0715 -0.0261  0.0762
 1910UNK    F0717189  35.534   3.319   6.544  0.1259 -0.0642  0.1864
 1910UNK    H0817190  35.291   3.361   6.369  0.8668 -1.6474  0.0352
 1911UNK    F0017191  26.890   3.485   4.618 -0.1890  0.2285  0.0802
 1911UNK    C0117192  27.008   3.507   4.673  0.2110  0.1940 -0.2575
 1911UNK    H0217193  27.090   3.504   4.601  0.4931  1.7417 -0.0304
 1911UNK    C0317194  27.021   3.507   4.808 -0.3486  0.5288 -0.0789
 1911UNK    C0417195  27.101   3.596   4.894  0.3538 -0.1813  0.7048
 1911UNK    F0517196  27.049   3.719   4.898  0.2725  0.0170  0.0005
 1911UNK    F0617197  27.098   3.558   5.024  0.0623  0.5424  0.1109
 1911UNK    F0717198  27.229   3.606   4.852 -0.6392  0.3753  0.0497
 1911UNK    H0817199  26.961   3.441   4.869  1.5398 -0.0438  1.2041
 1912UNK    F0017200  43.313   3.766  10.562 -0.2566 -0.0275  0.2104
 1912UNK    C0117201  43.300   3.798  10.435 -0.2120  0.7993  0.4203
 1912UNK    H0217202  43.287   3.708  10.375  0.9604  2.4042 -2.3343
 1912UNK    C0317203  43.278   3.926  10.416 -0.1579 -0.4487 -0.4035
 1912UNK    C0417204  43.244   3.968  10.282  0.6413  0.2640  0.3557
 1912UNK    F0517205  43.324   3.906  10.192  0.3535  0.0746 -0.5138
 1912UNK    F0617206  43.114   3.934  10.254 -0.5301  0.4651  0.0060
 1912UNK    F0717207  43.263   4.103  10.260 -0.4114 -0.0762  0.1452
 1912UNK    H0817208  43.250   3.999  10.490  2.4805 -0.6064  0.8269
 1913UNK    F0017209   6.381   0.857   4.915 -0.7464 -0.2777 -0.0468
 1913UNK    C0117210   6.474   0.954   4.947 -0.2387 -0.0427  1.0967
 1913UNK    H0217211   6.558   0.906   4.997  0.4104 -1.6319 -1.4307
 1913UNK    C0317212   6.479   1.074   4.893 -0.3484  0.4683 -0.0101
 1913UNK    C0417213   6.615   1.127   4.896 -0.7199 -0.2538 -0.3288
 1913UNK    F0517214   6.678   1.086   4.782  0.0962 -0.2629 -0.4293
 1913UNK    F0617215   6.627   1.261   4.893  0.4809  0.6689  0.2391
 1913UNK    F0717216   6.699   1.086   4.994 -0.3608 -0.2314 -0.7627
 1913UNK    H0817217   6.398   1.144   4.903 -1.2089 -0.4806 -0.2134
 1914UNK    F0017218  42.161   4.937   3.670 -0.4858  0.1023 -0.5861
 1914UNK    C0117219  42.187   4.832   3.597 -1.1650 -0.5512  0.4468
 1914UNK    H0217220  42.293   4.826   3.569 -1.0372 -0.4955  0.9165
 1914UNK    C0317221  42.097   4.736   3.579  1.1495 -0.1936  0.7253
 1914UNK    C0417222  42.035   4.696   3.449  0.2468 -0.6371 -0.0833
 1914UNK    F0517223  41.997   4.806   3.371  0.1722  0.5612 -0.2290
 1914UNK    F0617224  42.125   4.621   3.380 -0.1556 -0.5079  0.4629
 1914UNK    F0717225  41.914   4.620   3.470 -0.8952 -0.2871  0.1976
 1914UNK    H0817226  42.039   4.706   3.664  1.6757 -0.8202  0.8628
 1915UNK    F0017227  23.281   2.670   6.323 -0.3836 -0.5219 -0.0623
 1915UNK    C0117228  23.359   2.766   6.385 -0.4046 -0.3084  0.3125
 1915UNK    H0217229  23.453   2.720   6.417 -1.5898 -2.2866  1.0492
 1915UNK    C0317230  23.322   2.893   6.390  0.6986  0.6639  0.4322
 1915UNK    C0417231  23.406   3.006   6.389 -0.3747 -0.7018  0.3682
 1915UNK    F0517232  23.501   3.010   6.486  0.0510  0.2602 -0.5540
 1915UNK    F0617233  23.464   3.023   6.268  0.1409  0.1262  0.0506
 1915UNK    F0717234  23.337   3.116   6.405  0.2622  0.0524  0.2837
 1915UNK    H0817235  23.236   2.913   6.452  0.6814 -2.0354  1.3891
 1916UNK    F0017236  36.750   0.680   7.719 -0.1562 -0.6878 -0.2735
 1916UNK    C0117237  36.780   0.703   7.587  1.1723  0.2785  0.2151
 1916UNK    H0217238  36.888   0.693   7.574  1.2495  1.7602 -0.3188
 1916UNK    C0317239  36.703   0.799   7.531 -0.0069 -0.0224 -0.1894
 1916UNK    C0417240  36.697   0.818   7.387 -0.5858  0.6173 -0.4287
 1916UNK    F0517241  36.818   0.807   7.331 -0.0711  0.1103  0.2925
 1916UNK    F0617242  36.614   0.727   7.330  0.4669  0.3650 -0.0319
 1916UNK    F0717243  36.654   0.939   7.354 -0.2204 -0.3904  0.8158
 1916UNK    H0817244  36.629   0.846   7.594 -1.1488 -1.4096 -0.4907
 1917UNK    F0017245  42.954   4.993  10.371  0.3060 -0.0017 -0.1239
 1917UNK    C0117246  42.937   5.016  10.241  1.2051  0.0231 -0.2128
 1917UNK    H0217247  43.010   5.084  10.196  0.0646  0.2768 -1.7208
 1917UNK    C0317248  42.819   4.981  10.188  0.3603  0.3024 -0.8342
 1917UNK    C0417249  42.798   4.951  10.043 -0.6859  0.0125  0.3459
 1917UNK    F0517250  42.844   5.056   9.973 -0.2150 -0.2282  0.0395
 1917UNK    F0617251  42.871   4.835  10.008  0.5470 -0.2367  0.2654
 1917UNK    F0717252  42.669   4.941  10.010 -0.1177  0.7840  0.1160
 1917UNK    H0817253  42.748   4.931  10.254 -0.7849  1.1140 -1.4330
 1918UNK    F0017254  19.052   1.610   3.793  0.0441  0.1714 -0.1182
 1918UNK    C0117255  19.096   1.732   3.752 -0.0876  0.3625 -0.3698
 1918UNK    H0217256  19.176   1.770   3.816 -1.9074  0.8653  1.6397
 1918UNK    C0317257  19.043   1.802   3.654  0.1370 -1.1325 -0.1739
 1918UNK    C0417258  19.113   1.922   3.594  0.7180 -0.5269 -0.2402
 1918UNK    F0517259  19.033   1.985   3.508 -0.0509  0.6858  0.8060
 1918UNK    F0617260  19.160   2.010   3.685  0.4498  0.0491 -0.4412
 1918UNK    F0717261  19.224   1.884   3.528 -0.4136  0.1338  0.0798
 1918UNK    H0817262  18.973   1.751   3.588 -1.0940  1.0776 -0.6337
 1919UNK    F0017263  22.668   1.206   5.969 -0.0804 -0.4696 -0.0005
 1919UNK    C0117264  22.547   1.243   6.014  0.1515 -0.0266  0.1837
 1919UNK    H0217265  22.473   1.185   5.959  0.5596 -1.6030  1.2447
 1919UNK    C0317266  22.544   1.311   6.125 -0.1061 -0.6634  0.7487
 1919UNK    C0417267  22.539   1.458   6.116  1.0460  0.1343 -0.2641
 1919UNK    F0517268  22.597   1.489   6.228  0.5698  0.4155 -0.2651
 1919UNK    F0617269  22.610   1.513   6.018  0.0386  0.0425  0.1909
 1919UNK    F0717270  22.416   1.512   6.122  0.5132 -0.2923 -0.2332
 1919UNK    H0817271  22.581   1.273   6.219  1.0538  1.3033  1.1023
 1920UNK    F0017272  16.602   1.408   3.121  0.1084  0.0583 -0.1189
 1920UNK    C0117273  16.569   1.306   3.205  0.1571 -0.1003  0.0192
 1920UNK    H0217274  16.535   1.350   3.298  0.2636 -0.6543  0.3171
 1920UNK    C0317275  16.648   1.201   3.189 -0.0162 -0.1679  0.1332
 1920UNK    C0417276  16.783   1.190   3.254  0.1784  0.8716  0.1974
 1920UNK    F0517277  16.777   1.171   3.388 -0.1993  0.8813  0.0181
 1920UNK    F0617278  16.850   1.088   3.188  0.4074  0.3110 -0.6614
 1920UNK    F0717279  16.861   1.300   3.236  0.3573 -0.2329  0.5596
 1920UNK    H0817280  16.631   1.137   3.104  0.6179  2.5581 -2.1581
 1921UNK    F0017281  30.386   2.646   5.946 -0.2839 -0.2605 -0.3312
 1921UNK    C0117282  30.486   2.673   6.030  0.6904  0.4101  0.1525
 1921UNK    H0217283  30.559   2.592   6.031  0.8638  0.5689  1.1574
 1921UNK    C0317284  30.459   2.761   6.126 -0.5053  0.6035 -0.0494
 1921UNK    C0417285  30.562   2.850   6.176 -0.0249  0.3482  0.2342
 1921UNK    F0517286  30.612   2.928   6.076 -0.6110  0.4160  0.0678
 1921UNK    F0617287  30.516   2.931   6.273 -0.4262  0.3701  0.7295
 1921UNK    F0717288  30.666   2.783   6.227  0.4074  0.4776 -0.2173
 1921UNK    H0817289  30.382   2.738   6.198 -0.7948  0.0363 -0.5322
 1922UNK    F0017290  44.589   1.322   4.657 -0.2566  0.6044  0.2805
 1922UNK    C0117291  44.551   1.350   4.534 -0.0833  0.0096 -0.0628
 1922UNK    H0217292  44.607   1.282   4.470 -1.2258  2.1800 -3.5281
 1922UNK    C0317293  44.423   1.368   4.504 -0.5182 -0.1912  0.2252
 1922UNK    C0417294  44.378   1.412   4.372  0.7105 -0.1378  0.3232
 1922UNK    F0517295  44.342   1.309   4.290 -0.0634 -0.4039 -0.1943
 1922UNK    F0617296  44.257   1.475   4.389 -0.1897  0.9335  0.4412
 1922UNK    F0717297  44.468   1.498   4.310  0.3486 -0.5466  0.2453
 1922UNK    H0817298  44.344   1.313   4.554  0.4211  1.1414  3.3151
 1923UNK    F0017299  35.268   2.605   2.976  0.2554  0.0224  0.2102
 1923UNK    C0117300  35.208   2.516   2.892  0.2079 -0.3266 -0.9231
 1923UNK    H0217301  35.272   2.433   2.865 -2.0664 -1.7034 -2.2556
 1923UNK    C0317302  35.074   2.520   2.882 -0.0450 -0.2205  0.2962
 1923UNK    C0417303  35.007   2.412   2.803  0.5017 -0.8088 -0.2386
 1923UNK    F0517304  35.101   2.364   2.725  0.1204 -0.1276  0.1738
 1923UNK    F0617305  34.979   2.305   2.890  0.5192  0.3370  0.7284
 1923UNK    F0717306  34.903   2.458   2.731 -0.0820  0.3236  0.4014
 1923UNK    H0817307  35.011   2.607   2.893  1.8355  0.9790  1.8273
 1924UNK    F0017308  48.316   3.293  13.695 -0.3142  0.3948  0.2691
 1924UNK    C0117309  48.395   3.194  13.752  0.5378  0.0421  0.0957
 1924UNK    H0217310  48.500   3.214  13.767  0.5323  1.6973 -1.8312
 1924UNK    C0317311  48.332   3.073  13.760 -0.7986  0.1994 -0.2849
 1924UNK    C0417312  48.383   2.981  13.862  0.4846 -0.7203  0.0481
 1924UNK    F0517313  48.362   2.853  13.828  0.4976  0.5636 -0.1301
 1924UNK    F0617314  48.516   2.995  13.886  0.7293  0.2280 -0.3260
 1924UNK    F0717315  48.318   2.995  13.976 -0.1939 -0.4330  0.5717
 1924UNK    H0817316  48.229   3.047  13.739 -0.7265 -1.2769  1.0147
 1925UNK    F0017317  31.861   4.986  12.386 -0.7670  0.1526  0.1629
 1925UNK    C0117318  31.820   5.104  12.354  0.0525 -0.7288  0.9597
 1925UNK    H0217319  31.903   5.174  12.358  1.4529 -2.3656  0.8551
 1925UNK    C0317320  31.688   5.133  12.341  0.4851 -0.3413 -0.5557
 1925UNK    C0417321  31.640   5.245  12.257  0.0688 -0.2339 -0.6149
 1925UNK    F0517322  31.745   5.337  12.240  0.0676  0.5428  0.5234
 1925UNK    F0617323  31.620   5.189  12.132 -0.3356 -0.1715 -0.6173
 1925UNK    F0717324  31.537   5.322  12.313  0.1159 -0.7150  0.5846
 1925UNK    H0817325  31.629   5.094  12.422  1.8812  3.2376  2.2879
 1926UNK    F0017326  11.548   0.708   7.540  0.2282 -0.1599  0.0969
 1926UNK    C0117327  11.609   0.659   7.651 -0.3813  0.0875 -0.1083
 1926UNK    H0217328  11.624   0.552   7.634  4.1616  0.8243 -1.4187
 1926UNK    C0317329  11.658   0.738   7.751 -0.1155 -0.2033 -0.2599
 1926UNK    C0417330  11.566   0.815   7.843  0.2027 -0.1469  0.5990
 1926UNK    F0517331  11.641   0.901   7.916  0.0584  0.3762  0.1935
 1926UNK    F0617332  11.463   0.888   7.784  0.3101  0.6670 -0.4299
 1926UNK    F0717333  11.498   0.738   7.933 -0.1721 -0.2311  0.1871
 1926UNK    H0817334  11.764   0.753   7.761  0.1516 -3.1409  1.9403
 1927UNK    F0017335  35.152   1.064   6.342  0.6268  0.2467 -0.3061
 1927UNK    C0117336  35.272   1.120   6.333 -0.1366 -0.3210  0.3732
 1927UNK    H0217337  35.321   1.092   6.240  1.3751  1.3141  0.6399
 1927UNK    C0317338  35.336   1.164   6.432  0.3487 -0.2884 -0.0372
 1927UNK    C0417339  35.270   1.225   6.547 -0.4986  0.5824 -0.6274
 1927UNK    F0517340  35.208   1.125   6.620 -0.1422 -0.2639  0.4805
 1927UNK    F0617341  35.347   1.290   6.634  0.4308 -0.7364  0.3317
 1927UNK    F0717342  35.170   1.317   6.513  0.2151  0.0816  0.2738
 1927UNK    H0817343  35.432   1.208   6.408  0.4802 -0.2246  0.5863
 1928UNK    F0017344  33.734   3.956   0.615 -0.1763  0.1510 -0.2164
 1928UNK    C0117345  33.774   4.069   0.680  0.4735  0.2325  0.3453
 1928UNK    H0217346  33.692   4.116   0.735  0.6445 -0.7127  1.4300
 1928UNK    C0317347  33.877   4.116   0.606  0.1262  0.4370  0.3895
 1928UNK    C0417348  33.983   4.216   0.640  0.3388 -0.0031 -0.8585
 1928UNK    F0517349  34.031   4.273   0.529 -0.0139 -0.0107  0.5073
 1928UNK    F0617350  33.934   4.309   0.724 -0.2766 -0.1955  0.0785
 1928UNK    F0717351  34.089   4.163   0.707  0.0765  0.2829 -0.2962
 1928UNK    H0817352  33.873   4.097   0.500 -0.5174 -1.6421  0.7683
 1929UNK    F0017353  37.815   2.487   0.903  0.0269 -0.3817  0.5973
 1929UNK    C0117354  37.871   2.452   0.785  0.3836 -0.3246  0.3900
 1929UNK    H0217355  37.805   2.380   0.735 -0.4573  0.4508  0.3664
 1929UNK    C0317356  37.937   2.549   0.723 -0.2478  0.4967 -0.9822
 1929UNK    C0417357  38.014   2.537   0.599  0.2952  0.0039 -0.5607
 1929UNK    F0517358  38.101   2.437   0.604  0.3393  0.7055 -0.1428
 1929UNK    F0617359  37.927   2.515   0.506  0.4881  0.2170 -0.1973
 1929UNK    F0717360  38.091   2.647   0.580 -0.1520  0.4458  0.5575
 1929UNK    H0817361  37.927   2.651   0.758 -1.0298 -0.4399  1.5879
 1930UNK    F0017362  49.361   1.294   7.174 -0.0110 -0.0100  0.1500
 1930UNK    C0117363  49.391   1.305   7.302 -0.0976  0.3825 -0.6335
 1930UNK    H0217364  49.389   1.411   7.327 -0.5970  0.5299 -1.2671
 1930UNK    C0317365  49.476   1.226   7.356  0.2322  0.9617 -0.9469
 1930UNK    C0417366  49.464   1.184   7.496  1.0053 -0.3212 -0.7411
 1930UNK    F0517367  49.430   1.298   7.566 -0.0245  0.0363  0.2587
 1930UNK    F0617368  49.363   1.095   7.516 -0.3097 -0.6040 -0.5778
 1930UNK    F0717369  49.585   1.143   7.542 -0.7238 -0.0898  0.4744
 1930UNK    H0817370  49.543   1.166   7.296 -0.8212 -1.3702  0.1339
 1931UNK    F0017371  30.770   3.113  13.201  0.4775 -0.5602 -0.2965
 1931UNK    C0117372  30.675   3.161  13.284  0.7142 -0.4413 -0.1793
 1931UNK    H0217373  30.581   3.107  13.276  0.4912 -0.1656  0.4855
 1931UNK    C0317374  30.712   3.244  13.387  0.5792 -0.1103  1.0382
 1931UNK    C0417375  30.621   3.286  13.494 -0.7510 -0.6270  0.1772
 1931UNK    F0517376  30.622   3.418  13.503 -0.5628 -0.1857  0.0312
 1931UNK    F0617377  30.498   3.233  13.472 -0.0878  0.0723  0.3763
 1931UNK    F0717378  30.659   3.236  13.613 -0.1688 -0.6581 -0.5050
 1931UNK    H0817379  30.813   3.277  13.404  1.0187 -0.6489 -0.4824
 1932UNK    F0017380  33.492   2.689   0.232  0.2048  0.7291  0.3993
 1932UNK    C0117381  33.627   2.690   0.248  0.6572  0.1934  0.2490
 1932UNK    H0217382  33.674   2.660   0.154  2.7603  0.3399  1.2305
 1932UNK    C0317383  33.674   2.694   0.374  0.3371  0.4398  0.0380
 1932UNK    C0417384  33.792   2.771   0.418 -0.3055  0.0784 -0.2677
 1932UNK    F0517385  33.897   2.706   0.369  0.4116  0.2296 -0.1024
 1932UNK    F0617386  33.790   2.905   0.385 -0.5940  0.1268  0.0920
 1932UNK    F0717387  33.807   2.764   0.552  0.1158 -0.0781 -0.0760
 1932UNK    H0817388  33.611   2.671   0.458  0.2233 -1.1843 -0.4721
 1933UNK    F0017389  29.804   3.857   8.262  0.1674  0.0163 -1.0275
 1933UNK    C0117390  29.905   3.813   8.185  1.1161  0.7408  0.0842
 1933UNK    H0217391  29.965   3.745   8.245  1.5061  1.2967  0.3285
 1933UNK    C0317392  29.924   3.866   8.068 -0.8364 -0.4651 -0.4605
 1933UNK    C0417393  30.025   3.974   8.052  0.1455 -0.0965 -0.1600
 1933UNK    F0517394  30.034   4.042   7.934 -0.1205 -0.0634  0.9557
 1933UNK    F0617395  30.027   4.073   8.146 -0.0486  0.1614  0.5257
 1933UNK    F0717396  30.141   3.906   8.071 -0.7354 -0.0397  0.6730
 1933UNK    H0817397  29.847   3.886   7.995 -1.2991 -1.1017 -0.1503
 1934UNK    F0017398  13.958   1.452   8.152  0.4298  0.0669  0.0276
 1934UNK    C0117399  13.873   1.358   8.172  0.4400  0.5112  0.2316
 1934UNK    H0217400  13.905   1.295   8.255  3.4274  0.8156 -0.6402
 1934UNK    C0317401  13.745   1.386   8.145 -0.6486 -0.0682  0.6292
 1934UNK    C0417402  13.632   1.298   8.170  0.2736  0.0475 -0.2951
 1934UNK    F0517403  13.612   1.292   8.302 -0.4094 -0.0892 -0.3125
 1934UNK    F0617404  13.516   1.342   8.112  0.0088  0.3084  0.6920
 1934UNK    F0717405  13.654   1.168   8.137  0.3173  0.4079  0.3439
 1934UNK    H0817406  13.725   1.473   8.085 -1.2561 -1.1240 -0.7173
 1935UNK    F0017407  11.792   2.964   3.032  0.2805  0.2288 -0.0632
 1935UNK    C0117408  11.879   2.971   3.134 -0.1625  0.1709  0.0987
 1935UNK    H0217409  11.939   2.881   3.141 -1.4043 -0.6827  0.0166
 1935UNK    C0317410  11.870   3.075   3.219  0.1208  0.5081 -0.1689
 1935UNK    C0417411  11.953   3.092   3.342 -0.9762  0.2401 -0.5306
 1935UNK    F0517412  11.901   3.048   3.460  0.4566 -0.1632  0.1185
 1935UNK    F0617413  12.060   3.014   3.342  0.1073  0.1000 -0.0108
 1935UNK    F0717414  11.990   3.222   3.358  0.2591  0.1823 -0.3692
 1935UNK    H0817415  11.843   3.171   3.177  0.3386  0.8733  0.5216
 1936UNK    F0017416  13.983   1.611   9.391 -0.2944 -0.2940 -0.2523
 1936UNK    C0117417  13.876   1.566   9.332  0.6609  0.1704  0.5825
 1936UNK    H0217418  13.892   1.464   9.295  0.0239  0.6956 -1.2323
 1936UNK    C0317419  13.750   1.611   9.355 -0.3623 -0.7071 -1.0176
 1936UNK    C0417420  13.618   1.540   9.359 -1.3240  0.2519  0.5876
 1936UNK    F0517421  13.590   1.487   9.476 -0.0594 -0.3105  0.6338
 1936UNK    F0617422  13.510   1.617   9.327  1.1764  0.2217 -0.3371
 1936UNK    F0717423  13.631   1.455   9.258 -0.4681 -0.7341  0.2055
 1936UNK    H0817424  13.736   1.714   9.386 -2.3534 -1.4690  0.7926
 1937UNK    F0017425  20.537   1.318   2.226  0.0458  0.4840  0.1744
 1937UNK    C0117426  20.435   1.235   2.197  0.1605  0.5769  0.2161
 1937UNK    H0217427  20.368   1.225   2.282  2.4692  0.1343  2.0670
 1937UNK    C0317428  20.406   1.222   2.068 -0.1698  0.1907  0.3705
 1937UNK    C0417429  20.301   1.137   2.026 -0.0542  0.0331  0.0269
 1937UNK    F0517430  20.329   1.082   1.905 -0.3559 -0.1458  0.5487
 1937UNK    F0617431  20.274   1.028   2.107  0.9803 -0.3021  0.1338
 1937UNK    F0717432  20.187   1.202   2.001 -0.0159  0.3567 -0.3608
 1937UNK    H0817433  20.466   1.266   1.990 -1.5529  2.3266  0.4731
 1938UNK    F0017434  52.461   4.901  13.315 -0.2363 -0.3838 -0.2783
 1938UNK    C0117435  52.442   4.767  13.338  0.1915 -0.1792 -0.2946
 1938UNK    H0217436  52.378   4.723  13.261 -0.1996 -0.6712  0.3118
 1938UNK    C0317437  52.525   4.708  13.426 -0.2586 -0.1763  0.0803
 1938UNK    C0417438  52.670   4.725  13.425  0.6152 -0.0978  0.1479
 1938UNK    F0517439  52.731   4.609  13.468  0.6728  0.4096 -0.1440
 1938UNK    F0617440  52.712   4.759  13.297  0.2534  0.7509 -0.3237
 1938UNK    F0717441  52.708   4.811  13.522  0.4937  0.2640  0.0156
 1938UNK    H0817442  52.481   4.665  13.515 -1.7571 -3.1812 -1.9977
 1939UNK    F0017443  26.989   3.123   1.476 -0.4635 -0.0110 -0.0180
 1939UNK    C0117444  26.869   3.153   1.424 -0.6157  0.0860  0.7553
 1939UNK    H0217445  26.784   3.129   1.487 -1.7073 -1.2930 -1.1797
 1939UNK    C0317446  26.869   3.232   1.323 -0.3481  0.3954 -0.2950
 1939UNK    C0417447  26.762   3.343   1.299  0.5893  0.1466 -0.2899
 1939UNK    F0517448  26.630   3.301   1.309 -0.1114  0.0379 -0.4350
 1939UNK    F0617449  26.769   3.447   1.387 -0.1597  0.1235 -0.1658
 1939UNK    F0717450  26.785   3.390   1.177  0.0589  0.3331 -0.1486
 1939UNK    H0817451  26.967   3.259   1.285  1.3408 -2.3795  1.8897
 1940UNK    F0017452  50.359   2.307   3.360  0.0036 -0.5620 -0.0874
 1940UNK    C0117453  50.432   2.198   3.329  0.1995 -0.8985 -0.1538
 1940UNK    H0217454  50.397   2.142   3.242  1.2007 -0.8098 -0.6260
 1940UNK    C0317455  50.528   2.158   3.408  0.0183 -0.4970 -0.9001
 1940UNK    C0417456  50.622   2.056   3.359 -0.0231  0.3465 -0.6903
 1940UNK    F0517457  50.696   2.016   3.465  0.5167 -0.0713 -0.1329
 1940UNK    F0617458  50.546   1.957   3.307 -0.2686  0.3008 -0.1834
 1940UNK    F0717459  50.701   2.112   3.264 -0.0429  0.1756  0.2680
 1940UNK    H0817460  50.578   2.241   3.456 -1.6671  0.0723 -0.0752
 1941UNK    F0017461  22.556   1.886   8.555  0.1694 -0.1817 -0.1026
 1941UNK    C0117462  22.679   1.915   8.608  0.0285  0.1671  1.1687
 1941UNK    H0217463  22.765   1.892   8.545 -0.3501 -2.3558  1.5288
 1941UNK    C0317464  22.696   2.016   8.694 -0.0717  0.2398 -0.3169
 1941UNK    C0417465  22.822   2.082   8.708 -0.1250  0.9253  0.4579
 1941UNK    F0517466  22.853   2.136   8.826 -0.3522 -0.5540  0.1378
 1941UNK    F0617467  22.932   2.007   8.669  0.0190  0.4079 -0.1850
 1941UNK    F0717468  22.828   2.190   8.623 -0.3176 -0.1088 -0.3916
 1941UNK    H0817469  22.634   2.025   8.782  0.7175  0.2951  0.2413
 1942UNK    F0017470  45.428   3.964   6.972  0.1439  0.7437 -0.2092
 1942UNK    C0117471  45.402   4.092   6.950  0.1283 -0.4721 -0.5518
 1942UNK    H0217472  45.352   4.101   6.853  1.1215  0.0255 -1.0295
 1942UNK    C0317473  45.411   4.191   7.038 -0.1498  0.4541  0.7181
 1942UNK    C0417474  45.542   4.251   7.071  0.0441 -0.8478  0.6398
 1942UNK    F0517475  45.581   4.328   6.968 -0.1868 -0.2023 -0.8395
 1942UNK    F0617476  45.517   4.338   7.168 -0.3767  0.5095 -0.2454
 1942UNK    F0717477  45.643   4.166   7.102 -0.1305 -0.3832 -0.6074
 1942UNK    H0817478  45.327   4.228   7.095 -0.7103 -1.7805  1.3727
 1943UNK    F0017479  26.132   0.610  11.107 -0.0017 -0.0917  0.1747
 1943UNK    C0117480  26.212   0.635  11.210 -0.1827  0.3074  0.0393
 1943UNK    H0217481  26.163   0.605  11.303 -1.2519 -0.4368 -0.7406
 1943UNK    C0317482  26.324   0.702  11.190 -0.5499 -0.3436  0.3910
 1943UNK    C0417483  26.429   0.665  11.087 -0.0829 -0.2596  0.2342
 1943UNK    F0517484  26.457   0.532  11.078 -0.2920  0.0888  0.3365
 1943UNK    F0617485  26.393   0.695  10.960 -0.3164  0.0925 -0.1215
 1943UNK    F0717486  26.540   0.732  11.121  0.9732  0.4769 -0.4644
 1943UNK    H0817487  26.324   0.805  11.222  0.5502  0.0453 -0.7973
 1944UNK    F0017488  19.646   4.886   2.393  0.1253  0.3029 -0.0870
 1944UNK    C0117489  19.538   4.803   2.400 -0.0692  0.0060 -0.1009
 1944UNK    H0217490  19.493   4.805   2.499  0.2110  1.0025  0.0140
 1944UNK    C0317491  19.504   4.722   2.301  0.1755 -0.2474 -0.4087
 1944UNK    C0417492  19.432   4.598   2.319 -0.1051 -1.0481 -0.3936
 1944UNK    F0517493  19.433   4.568   2.445  0.1786 -0.1919 -0.1808
 1944UNK    F0617494  19.304   4.629   2.295 -0.1897  0.1243  0.0197
 1944UNK    F0717495  19.476   4.499   2.242  0.2908  0.2425 -0.2043
 1944UNK    H0817496  19.502   4.759   2.200  1.9686  1.2652  0.0757
 1945UNK    F0017497  24.869   0.233   9.755  0.1310  0.2345 -0.2861
 1945UNK    C0117498  24.999   0.242   9.747 -0.9593 -0.2641  0.5469
 1945UNK    H0217499  25.035   0.304   9.665  1.3981  1.6682  2.9606
 1945UNK    C0317500  25.082   0.144   9.784  0.3235  0.1786 -0.1630
 1945UNK    C0417501  25.222   0.179   9.812  0.3779 -0.1886 -0.2190
 1945UNK    F0517502  25.221   0.246   9.929 -0.4161  0.5252 -0.5609
 1945UNK    F0617503  25.308   0.071   9.823 -0.2074  0.0334 -0.6908
 1945UNK    F0717504  25.284   0.249   9.715 -0.5880 -0.8796  0.0724
 1945UNK    H0817505  25.035   0.084   9.861 -0.5648 -0.3876 -1.1261
 1946UNK    F0017506   1.063   4.617   8.615  0.0428  0.0684 -0.1830
 1946UNK    C0117507   0.943   4.578   8.568 -0.8470 -0.6120  0.0100
 1946UNK    H0217508   0.939   4.469   8.560 -0.5678 -0.4822 -1.9656
 1946UNK    C0317509   0.859   4.663   8.520  0.2512  0.4490  0.0060
 1946UNK    C0417510   0.716   4.647   8.494 -1.1390  0.0731  0.4912
 1946UNK    F0517511   0.643   4.648   8.610  0.6426 -0.3086 -0.1539
 1946UNK    F0617512   0.664   4.741   8.407 -0.3439  0.6493 -0.1574
 1946UNK    F0717513   0.698   4.523   8.445 -0.0510  0.3588 -0.2606
 1946UNK    H0817514   0.890   4.760   8.484  0.8250  0.1322 -0.3516
 1947UNK    F0017515  12.016   4.129   1.334  0.0635  0.0112  0.1867
 1947UNK    C0117516  11.997   4.258   1.317 -0.2227 -0.0722  0.3398
 1947UNK    H0217517  12.050   4.305   1.400  0.6241  2.2910 -1.4805
 1947UNK    C0317518  11.912   4.302   1.220 -0.0290 -0.2642  1.3764
 1947UNK    C0417519  11.945   4.424   1.134 -0.3381  1.3261  1.4497
 1947UNK    F0517520  11.829   4.461   1.070  0.7864 -0.5689  0.6424
 1947UNK    F0617521  11.980   4.531   1.209  0.1054 -0.4888 -0.4775
 1947UNK    F0717522  12.045   4.387   1.052 -1.2015 -0.3631  0.1905
 1947UNK    H0817523  11.807   4.283   1.234 -0.2506  1.7110  2.4462
 1948UNK    F0017524  24.719   2.405   9.957  0.2173 -0.2937 -0.6649
 1948UNK    C0117525  24.660   2.518   9.973  0.2258  0.0338  0.3386
 1948UNK    H0217526  24.727   2.590   9.924  1.0682  0.1671  1.6554
 1948UNK    C0317527  24.546   2.541  10.034 -0.2157  0.1799 -0.7596
 1948UNK    C0417528  24.482   2.676  10.031 -0.1829  0.0885 -0.5301
 1948UNK    F0517529  24.353   2.682  10.074 -0.2930  0.0923  0.9401
 1948UNK    F0617530  24.549   2.768  10.111 -0.2263  0.0670  0.1983
 1948UNK    F0717531  24.490   2.734   9.907 -0.1231 -0.0997  0.0128
 1948UNK    H0817532  24.478   2.457  10.025 -0.3790  0.4878 -2.6731
 1949UNK    F0017533   1.581   4.710   6.742 -0.2462  0.3297 -0.4020
 1949UNK    C0117534   1.655   4.684   6.854  0.5093 -0.2637 -0.8359
 1949UNK    H0217535   1.603   4.745   6.928  0.5431  1.5041 -2.2534
 1949UNK    C0317536   1.718   4.571   6.875  0.4756  0.4135  0.6960
 1949UNK    C0417537   1.861   4.564   6.919  0.1251  0.5836  0.1787
 1949UNK    F0517538   1.899   4.463   7.001  0.4121  0.1689  0.0980
 1949UNK    F0617539   1.925   4.544   6.800  0.2376  0.3808 -0.0521
 1949UNK    F0717540   1.914   4.679   6.970 -0.4893 -0.7807 -0.4348
 1949UNK    H0817541   1.695   4.483   6.817  2.1818 -1.4092  2.6756
 1950UNK    F0017542   3.262   1.348  14.108  0.3415 -0.3438 -0.1654
 1950UNK    C0117543   3.125   1.332  14.108  0.4327  0.4714 -0.2045
 1950UNK    H0217544   3.081   1.367  14.014 -0.3358  0.6506  0.2223
 1950UNK    C0317545   3.073   1.306  14.227 -0.5426 -0.5297 -0.3001
 1950UNK    C0417546   2.968   1.209  14.258 -0.2186 -0.3275  0.3680
 1950UNK    F0517547   2.848   1.253  14.223  0.1328 -0.1329  0.1241
 1950UNK    F0617548   2.979   1.091  14.185  0.1713 -0.7407 -0.5919
 1950UNK    F0717549   2.967   1.171  14.387  0.6339  0.7903 -0.0499
 1950UNK    H0817550   3.121   1.356  14.309 -0.5365  0.2050 -0.7491
 1951UNK    F0017551   7.549   1.282  10.268 -0.4998  0.3525  0.9153
 1951UNK    C0117552   7.447   1.361  10.268  0.2942  0.3326 -0.0715
 1951UNK    H0217553   7.457   1.464  10.301 -1.4067  0.2435  0.7709
 1951UNK    C0317554   7.339   1.314  10.213  0.1959 -0.6284  0.1016
 1951UNK    C0417555   7.228   1.403  10.185 -0.3234 -0.2458  0.2245
 1951UNK    F0517556   7.179   1.469  10.297  0.4016  0.1097 -0.1193
 1951UNK    F0617557   7.271   1.494  10.097  0.2223  0.0403  0.4909
 1951UNK    F0717558   7.125   1.327  10.143  0.3777 -0.2438 -0.5281
 1951UNK    H0817559   7.363   1.256  10.125  0.9435 -2.9319  1.7609
 1952UNK    F0017560  30.335   5.207   9.748  0.6367 -0.1582 -0.5810
 1952UNK    C0117561  30.363   5.133   9.643  0.4595  0.5519 -0.1534
 1952UNK    H0217562  30.367   5.027   9.668 -0.5059  0.4759 -0.3296
 1952UNK    C0317563  30.414   5.181   9.532  0.1325 -0.3267 -1.2324
 1952UNK    C0417564  30.397   5.111   9.404  0.3320 -0.0030 -0.5740
 1952UNK    F0517565  30.413   4.977   9.405  0.1865  0.2527 -0.1098
 1952UNK    F0617566  30.269   5.135   9.355 -0.3495  0.2534 -0.2559
 1952UNK    F0717567  30.472   5.163   9.306 -0.2517  0.2273 -0.4868
 1952UNK    H0817568  30.426   5.288   9.520 -0.8208 -0.0235  0.3137
 1953UNK    F0017569   0.546   5.143   9.970  0.4755 -0.4210 -0.1935
 1953UNK    C0117570   0.486   5.027   9.996  0.1970  0.5887 -0.2164
 1953UNK    H0217571   0.527   4.953   9.928 -1.1576  0.0094 -0.4251
 1953UNK    C0317572   0.386   5.007  10.083  0.3252 -0.1572 -0.2485
 1953UNK    C0417573   0.248   5.017  10.038  0.7190  0.0005 -0.0105
 1953UNK    F0517574   0.220   4.915   9.961  0.0442 -0.2951 -0.3682
 1953UNK    F0617575   0.151   5.000  10.129  0.0494 -0.1046 -0.2920
 1953UNK    F0717576   0.234   5.139   9.982  0.3345 -0.8379  0.0167
 1953UNK    H0817577   0.402   5.007  10.190 -2.0661 -0.1753  0.1422
 1954UNK    F0017578  22.499   3.068   7.247 -0.1466 -0.0841  0.3486
 1954UNK    C0117579  22.466   3.099   7.374  0.2303 -0.3531 -0.0634
 1954UNK    H0217580  22.372   3.062   7.414  0.2818 -0.9074 -0.4456
 1954UNK    C0317581  22.545   3.181   7.434 -0.1621 -0.0054  0.2253
 1954UNK    C0417582  22.555   3.180   7.576  0.5159  0.0225 -0.3527
 1954UNK    F0517583  22.656   3.095   7.608  0.1842 -0.2191 -0.1563
 1954UNK    F0617584  22.585   3.296   7.643 -0.1852 -0.1178  0.0692
 1954UNK    F0717585  22.445   3.123   7.637  0.1712 -0.8178  0.5687
 1954UNK    H0817586  22.633   3.217   7.382  2.0155 -0.2845  3.5858
 1955UNK    F0017587  27.894   3.556   2.854  0.0636  0.0881 -0.0402
 1955UNK    C0117588  27.957   3.460   2.790 -0.5807  0.3113  0.2956
 1955UNK    H0217589  28.065   3.465   2.797 -0.3125 -3.4886 -0.0340
 1955UNK    C0317590  27.886   3.370   2.728  0.0473  0.0102 -0.9113
 1955UNK    C0417591  27.933   3.233   2.694  0.1134 -0.3731  0.3316
 1955UNK    F0517592  27.950   3.155   2.802 -0.3614 -0.0750 -0.1859
 1955UNK    F0617593  27.836   3.180   2.616  0.7386 -0.0405  0.2503
 1955UNK    F0717594  28.040   3.238   2.618 -0.2387 -0.0430  0.2093
 1955UNK    H0817595  27.800   3.399   2.670 -0.2952 -1.0783 -0.9674
 1956UNK    F0017596   4.823   4.738   4.643 -0.2454  0.3206 -0.4172
 1956UNK    C0117597   4.784   4.798   4.757  0.0532  0.6146 -0.0686
 1956UNK    H0217598   4.675   4.808   4.758  0.0491  0.8472 -1.1759
 1956UNK    C0317599   4.879   4.825   4.848  0.0657  1.1242 -0.2903
 1956UNK    C0417600   4.919   4.957   4.886 -0.1181  0.2221 -0.2934
 1956UNK    F0517601   4.924   5.043   4.782 -0.4280  0.3924  0.1864
 1956UNK    F0617602   4.819   5.013   4.958  0.6519 -0.1868  0.0212
 1956UNK    F0717603   5.036   4.973   4.946  0.2705  0.4020 -0.1288
 1956UNK    H0817604   4.963   4.760   4.869 -2.2435 -0.4944  4.8994
 1957UNK    F0017605  32.840   3.607   5.271 -0.3385 -0.1681 -0.0620
 1957UNK    C0117606  32.777   3.646   5.156  0.7646 -0.4415  0.0157
 1957UNK    H0217607  32.673   3.613   5.159  0.0750  1.5138 -1.4829
 1957UNK    C0317608  32.813   3.772   5.120 -0.2292 -0.5119  0.1090
 1957UNK    C0417609  32.819   3.888   5.208  0.6815 -1.0073  0.4944
 1957UNK    F0517610  32.928   3.878   5.285 -0.4787 -0.4517 -0.2410
 1957UNK    F0617611  32.844   4.001   5.139 -0.1442  0.0491  0.0824
 1957UNK    F0717612  32.712   3.914   5.288 -0.3982 -0.1320 -0.1750
 1957UNK    H0817613  32.865   3.783   5.026  0.6773 -0.5690  0.6041
 1958UNK    F0017614  40.489   1.848  14.304 -0.4837  0.0003  0.4217
 1958UNK    C0117615  40.403   1.822  14.402  0.4486 -0.2053 -0.2983
 1958UNK    H0217616  40.364   1.721  14.392 -1.0336  0.3320 -0.0521
 1958UNK    C0317617  40.437   1.886  14.512  0.2854  0.3857  0.3936
 1958UNK    C0417618  40.444   2.032  14.532  0.1065  0.4824 -0.2496
 1958UNK    F0517619  40.510   2.069  14.644 -0.1476 -0.2397  0.1965
 1958UNK    F0617620  40.523   2.083  14.430  0.0218  0.5364 -0.1337
 1958UNK    F0717621  40.319   2.089  14.533  0.3555  0.0236 -0.4067
 1958UNK    H0817622  40.495   1.827  14.582 -1.3246 -1.3572  0.2978
 1959UNK    F0017623  34.385   4.718  11.704 -0.1849  0.3767 -0.0792
 1959UNK    C0117624  34.365   4.789  11.814 -0.4758 -0.6513 -0.4983
 1959UNK    H0217625  34.459   4.810  11.865  0.5686 -0.1767 -2.5823
 1959UNK    C0317626  34.243   4.781  11.875  0.5065 -0.6761 -0.4294
 1959UNK    C0417627  34.141   4.885  11.869 -0.7445  0.3649 -0.4089
 1959UNK    F0517628  34.118   4.916  11.738 -0.2504 -0.1018  0.0811
 1959UNK    F0617629  34.030   4.840  11.931 -0.4174 -0.1346  0.0118
 1959UNK    F0717630  34.169   5.004  11.923  0.2207  0.6570 -0.1615
 1959UNK    H0817631  34.238   4.708  11.954 -0.6781  0.2707  0.3763
 1960UNK    F0017632  39.867   4.808   1.271  0.6529  0.2935  0.5976
 1960UNK    C0117633  39.965   4.825   1.360  0.5683 -0.1683  0.0353
 1960UNK    H0217634  39.941   4.892   1.442  0.5527 -1.5683  1.1930
 1960UNK    C0317635  40.084   4.801   1.308  0.7033  0.0901  0.5674
 1960UNK    C0417636  40.213   4.790   1.375 -0.4138 -0.5900  0.0605
 1960UNK    F0517637  40.310   4.851   1.300  0.1283 -0.5335  0.3547
 1960UNK    F0617638  40.213   4.850   1.497  0.1971  0.1387  0.4285
 1960UNK    F0717639  40.247   4.665   1.390 -0.0301  0.9566  0.0733
 1960UNK    H0817640  40.090   4.790   1.201 -0.3341 -2.0980  0.7053
 1961UNK    F0017641  44.280   3.472   6.194  0.1613 -0.6919 -0.0543
 1961UNK    C0117642  44.269   3.482   6.060 -0.3294  0.3536 -0.4292
 1961UNK    H0217643  44.238   3.585   6.039  1.6966  0.7823 -1.3814
 1961UNK    C0317644  44.337   3.405   5.984 -0.1634  0.2397 -0.4253
 1961UNK    C0417645  44.416   3.445   5.867  0.3769  0.4250 -0.4391
 1961UNK    F0517646  44.444   3.343   5.775 -0.0813  0.5059  0.0679
 1961UNK    F0617647  44.349   3.553   5.814 -0.2736 -0.1675  0.1056
 1961UNK    F0717648  44.528   3.502   5.918 -0.2837 -0.2150 -0.1510
 1961UNK    H0817649  44.328   3.297   5.985  0.1760  0.2122 -0.2678
 1962UNK    F0017650  12.487   0.688  10.191  0.6431  0.1622 -0.3561
 1962UNK    C0117651  12.416   0.591  10.247  0.2091 -0.4098  0.0979
 1962UNK    H0217652  12.385   0.519  10.171  2.3621 -0.7755 -0.4951
 1962UNK    C0317653  12.448   0.551  10.370 -0.3672 -0.0200 -0.3770
 1962UNK    C0417654  12.411   0.424  10.427 -0.9296 -0.4846 -0.7468
 1962UNK    F0517655  12.508   0.330  10.404  0.4679 -0.1716  0.5525
 1962UNK    F0617656  12.388   0.457  10.550  0.3086 -0.0305 -0.0822
 1962UNK    F0717657  12.293   0.388  10.375  0.9466 -0.1965 -0.0581
 1962UNK    H0817658  12.528   0.604  10.420  1.3269 -0.4287 -2.5831
 1963UNK    F0017659  11.600   4.488   2.021 -0.0020  0.1167  0.0007
 1963UNK    C0117660  11.722   4.508   2.065  1.4433 -0.3453  0.5264
 1963UNK    H0217661  11.730   4.596   2.128 -0.0139 -1.3960  2.2113
 1963UNK    C0317662  11.820   4.432   2.016  0.1651 -0.6006  1.1765
 1963UNK    C0417663  11.909   4.504   1.932 -0.8484  0.4161  0.0593
 1963UNK    F0517664  11.964   4.416   1.842 -0.0368 -0.2787  0.6946
 1963UNK    F0617665  11.853   4.608   1.868  0.0315 -0.0492  0.2675
 1963UNK    F0717666  12.011   4.553   2.011 -0.2878  0.0298  0.0806
 1963UNK    H0817667  11.782   4.341   1.970 -0.9587  1.6430 -2.5301
 1964UNK    F0017668   9.473   1.954   1.382  0.5410 -0.4218 -0.2887
 1964UNK    C0117669   9.581   1.959   1.464 -0.0316  0.0900 -0.2815
 1964UNK    H0217670   9.610   2.064   1.456 -0.0309  0.0714 -0.5451
 1964UNK    C0317671   9.599   1.872   1.564  0.5879 -0.3557  0.0156
 1964UNK    C0417672   9.733   1.869   1.631  0.6757 -0.4169  0.0546
 1964UNK    F0517673   9.728   1.970   1.719 -0.4109 -0.4562 -0.3302
 1964UNK    F0617674   9.769   1.755   1.690  0.4297 -0.0388 -0.0716
 1964UNK    F0717675   9.836   1.893   1.541  0.2066  0.5509  0.3710
 1964UNK    H0817676   9.543   1.780   1.579 -1.2613  0.7591  0.0683
 1965UNK    F0017677  10.530   2.878   1.330  0.3819  0.5737  0.0196
 1965UNK    C0117678  10.452   2.820   1.233 -0.2553  0.2438 -0.4537
 1965UNK    H0217679  10.397   2.732   1.266  2.1512 -0.1368  2.7555
 1965UNK    C0317680  10.469   2.860   1.109  0.0039  0.4381 -0.3800
 1965UNK    C0417681  10.362   2.869   1.007  0.2203  0.0643  0.0055
 1965UNK    F0517682  10.272   2.769   1.008 -0.1333 -0.3404 -0.0520
 1965UNK    F0617683  10.280   2.975   1.017 -0.0918 -0.1557  0.1881
 1965UNK    F0717684  10.418   2.873   0.882  0.3205 -0.2831 -0.3165
 1965UNK    H0817685  10.568   2.851   1.066  0.0988 -1.1199  0.1130
 1966UNK    F0017686  15.565   0.715  12.368 -0.4699 -0.2169  0.1070
 1966UNK    C0117687  15.619   0.798  12.273  0.2919  0.0127 -0.1665
 1966UNK    H0217688  15.723   0.769  12.258  0.2220  0.4374 -1.4564
 1966UNK    C0317689  15.559   0.914  12.239 -0.4153  0.2241  0.0898
 1966UNK    C0417690  15.596   0.988  12.113  0.2144 -0.1300 -0.5244
 1966UNK    F0517691  15.730   0.990  12.107 -0.0921 -0.6165 -0.1477
 1966UNK    F0617692  15.551   0.903  12.017  0.5717  0.6136 -0.3849
 1966UNK    F0717693  15.557   1.113  12.098 -0.1214  0.0873 -0.0894
 1966UNK    H0817694  15.457   0.930  12.271 -0.5731  0.1347 -0.3679
 1967UNK    F0017695   4.271   3.806   4.029  0.3791 -0.2542  0.3121
 1967UNK    C0117696   4.237   3.840   4.158 -0.5181 -1.3146  0.1446
 1967UNK    H0217697   4.328   3.864   4.213 -0.8902 -2.1556  1.1245
 1967UNK    C0317698   4.126   3.770   4.197  0.1020 -0.0739 -0.7247
 1967UNK    C0417699   4.050   3.823   4.311  0.0522  0.2423 -0.0750
 1967UNK    F0517700   3.980   3.932   4.279  0.0934 -0.5174 -0.0768
 1967UNK    F0617701   3.990   3.728   4.372 -0.1297  0.2875 -0.4252
 1967UNK    F0717702   4.148   3.860   4.403  0.2760 -0.1737 -1.0393
 1967UNK    H0817703   4.051   3.735   4.128  2.2360 -2.8703 -1.7009
 1968UNK    F0017704  46.152   1.149  13.551 -0.0410  0.2497 -0.4133
 1968UNK    C0117705  46.260   1.082  13.493 -1.2341  0.1001  0.7818
 1968UNK    H0217706  46.326   1.154  13.443 -0.1320 -0.6775  1.0901
 1968UNK    C0317707  46.273   0.950  13.483  0.0738 -0.0643  0.3496
 1968UNK    C0417708  46.299   0.860  13.368 -1.3874 -0.4421 -0.8644
 1968UNK    F0517709  46.254   0.729  13.394  0.3960 -0.4147 -0.0963
 1968UNK    F0617710  46.232   0.916  13.264  0.0400  0.0717  0.9148
 1968UNK    F0717711  46.423   0.852  13.316  0.4596  0.2806 -0.1333
 1968UNK    H0817712  46.255   0.899  13.576 -1.1528 -0.9682 -0.3643
 1969UNK    F0017713  28.983   5.180   2.888  0.0526  0.5159  0.0755
 1969UNK    C0117714  29.048   5.240   2.984  0.2464  0.0799 -1.3707
 1969UNK    H0217715  29.111   5.322   2.951  3.4206 -0.8252  2.1306
 1969UNK    C0317716  29.071   5.169   3.091  0.5395 -0.0317  0.0471
 1969UNK    C0417717  29.191   5.087   3.111 -0.2796 -0.7603  0.7427
 1969UNK    F0517718  29.224   5.017   3.000  0.1308 -0.4695 -0.0433
 1969UNK    F0617719  29.306   5.160   3.133  0.6813 -0.1696  0.0406
 1969UNK    F0717720  29.165   4.995   3.206 -0.3087  0.4062  0.1547
 1969UNK    H0817721  28.984   5.124   3.137 -0.9396  1.3012 -1.3841
 1970UNK    F0017722  36.183   4.675  11.044 -0.1796 -0.2299  0.8666
 1970UNK    C0117723  36.201   4.678  10.909 -0.8250 -1.0821 -0.4957
 1970UNK    H0217724  36.224   4.578  10.872 -1.3011 -1.7357  0.9217
 1970UNK    C0317725  36.251   4.789  10.867 -0.0960 -0.0198  0.3708
 1970UNK    C0417726  36.220   4.843  10.731 -0.0926  0.0543 -0.8921
 1970UNK    F0517727  36.320   4.915  10.681 -0.5259  0.2534  0.0818
 1970UNK    F0617728  36.214   4.748  10.639  0.0248 -0.0674  0.3467
 1970UNK    F0717729  36.106   4.920  10.724 -0.4084 -0.2493  0.4263
 1970UNK    H0817730  36.305   4.862  10.925  1.7619 -1.3006  0.2705
 1971UNK    F0017731  34.750   1.302   5.734 -0.1418 -0.4481 -0.2623
 1971UNK    C0117732  34.681   1.202   5.780 -0.5579 -0.1370  0.1824
 1971UNK    H0217733  34.582   1.192   5.736  0.3707  1.9530 -2.5111
 1971UNK    C0317734  34.738   1.099   5.854  0.1676  0.9979 -0.0997
 1971UNK    C0417735  34.676   0.970   5.870 -1.0045  0.5644  0.5231
 1971UNK    F0517736  34.710   0.932   5.993 -0.2845 -0.0408 -0.0226
 1971UNK    F0617737  34.542   0.979   5.866  0.4976  0.1263  0.3482
 1971UNK    F0717738  34.736   0.879   5.788 -0.3265 -0.4338 -0.0349
 1971UNK    H0817739  34.845   1.102   5.869 -0.0753  0.5912  1.7052
 1972UNK    F0017740  42.945   0.645   9.043 -0.0904 -0.0439  0.0448
 1972UNK    C0117741  43.066   0.637   8.994 -0.5354  0.1313 -0.7314
 1972UNK    H0217742  43.101   0.534   8.988  2.1564  0.7172  2.9172
 1972UNK    C0317743  43.142   0.740   9.009  1.1092  0.2218  0.0531
 1972UNK    C0417744  43.272   0.765   8.934 -0.2776  0.3798  0.2848
 1972UNK    F0517745  43.341   0.880   8.949 -0.2755  0.0016 -0.4211
 1972UNK    F0617746  43.354   0.655   8.946 -0.0211 -1.3564 -0.1489
 1972UNK    F0717747  43.238   0.768   8.805 -0.4991 -0.4314 -0.2345
 1972UNK    H0817748  43.115   0.822   9.074  0.1200  0.6426 -0.8811
 1973UNK    F0017749  22.138   3.697   0.384 -0.0804 -0.0104 -0.7121
 1973UNK    C0117750  22.180   3.761   0.501 -0.4522  0.0252  0.0819
 1973UNK    H0217751  22.232   3.691   0.566  1.7703  1.4446 -0.1208
 1973UNK    C0317752  22.124   3.878   0.525 -0.3631  0.1010  0.1830
 1973UNK    C0417753  22.190   3.992   0.593 -0.4293  0.3380 -0.2615
 1973UNK    F0517754  22.252   3.957   0.705 -0.1529 -0.3422  0.3065
 1973UNK    F0617755  22.278   4.044   0.503  0.1552  0.4987 -0.1943
 1973UNK    F0717756  22.113   4.089   0.633 -0.4010 -0.2537 -0.1535
 1973UNK    H0817757  22.051   3.914   0.454  1.3062  1.4099 -0.8962
 1974UNK    F0017758  37.406   2.983   2.836  0.1344  0.0305 -0.0210
 1974UNK    C0117759  37.304   3.060   2.794 -0.6378 -0.5089  0.8335
 1974UNK    H0217760  37.286   3.158   2.840 -0.8337 -0.8115  1.4081
 1974UNK    C0317761  37.232   3.006   2.693  0.6023  0.4029  0.1079
 1974UNK    C0417762  37.108   2.923   2.696  0.2152  0.3758  0.8261
 1974UNK    F0517763  37.103   2.834   2.797 -0.1361 -0.0106 -0.1960
 1974UNK    F0617764  37.003   3.005   2.692 -0.1159 -0.4966  0.7117
 1974UNK    F0717765  37.099   2.842   2.583  0.1834 -0.1217  0.7522
 1974UNK    H0817766  37.259   3.051   2.598  0.8206  0.7817  0.3496
 1975UNK    F0017767  52.333   1.971   5.678 -0.4527 -0.3577 -0.2091
 1975UNK    C0117768  52.382   1.850   5.703  0.2424 -0.4376  0.0583
 1975UNK    H0217769  52.307   1.771   5.700 -2.3618  1.9624 -0.9538
 1975UNK    C0317770  52.505   1.840   5.745  0.4553 -0.1912 -0.3471
 1975UNK    C0417771  52.582   1.712   5.756 -0.4677 -0.3760  0.0981
 1975UNK    F0517772  52.680   1.732   5.847 -0.5077  0.2653  0.0294
 1975UNK    F0617773  52.511   1.609   5.808  0.0209 -0.0920  0.4696
 1975UNK    F0717774  52.639   1.675   5.639  0.2820  0.6595  0.2749
 1975UNK    H0817775  52.570   1.921   5.717  1.5541 -1.4676 -1.6019
 1976UNK    F0017776  22.051   3.427   3.245 -0.3736 -0.4855 -0.1480
 1976UNK    C0117777  22.133   3.537   3.235  0.1457 -0.0350  0.1777
 1976UNK    H0217778  22.085   3.634   3.250 -1.6013 -0.8673  0.0042
 1976UNK    C0317779  22.269   3.519   3.236 -0.1200  0.4062  0.3725
 1976UNK    C0417780  22.366   3.631   3.260  0.1717  0.1238  0.0387
 1976UNK    F0517781  22.322   3.751   3.204 -0.4737  0.2242 -0.3549
 1976UNK    F0617782  22.372   3.657   3.393 -0.3522 -0.1729 -0.2163
 1976UNK    F0717783  22.492   3.607   3.221  0.3965  0.0120 -0.1430
 1976UNK    H0817784  22.306   3.418   3.243  0.9331  0.7752  0.1324
 1977UNK    F0017785  12.157   4.427   6.964 -0.0099  0.0200  0.1503
 1977UNK    C0117786  12.082   4.332   6.905  0.2729  0.3862 -0.7954
 1977UNK    H0217787  12.017   4.372   6.826 -0.5862  1.3957  0.3920
 1977UNK    C0317788  12.086   4.211   6.964  0.8436  0.0310 -0.2148
 1977UNK    C0417789  12.087   4.078   6.904  0.5954  0.4782  0.2198
 1977UNK    F0517790  12.199   4.034   6.842 -0.0745 -0.3762 -0.4755
 1977UNK    F0617791  12.050   4.000   7.012  0.0677 -0.0281  0.4653
 1977UNK    F0717792  11.983   4.056   6.818 -0.0931 -0.5016  0.3547
 1977UNK    H0817793  12.111   4.206   7.069  2.9920 -1.1788 -0.7548
 1978UNK    F0017794  40.851   3.543   3.611  0.0988 -0.0770 -0.0771
 1978UNK    C0117795  40.807   3.667   3.655  0.5025 -0.1657  0.7583
 1978UNK    H0217796  40.828   3.744   3.580 -1.9132  0.5398  0.7609
 1978UNK    C0317797  40.718   3.669   3.747 -0.3387  0.7201 -0.4177
 1978UNK    C0417798  40.633   3.783   3.771 -0.0662 -0.3433 -0.0405
 1978UNK    F0517799  40.561   3.826   3.664  0.3609 -0.1390 -0.3971
 1978UNK    F0617800  40.541   3.746   3.860  0.3652  0.2561  0.5424
 1978UNK    F0717801  40.703   3.896   3.804 -0.6056 -0.2088  0.1464
 1978UNK    H0817802  40.659   3.580   3.757 -1.8896  1.7886  0.2532
 1979UNK    F0017803  44.898   3.137   6.216  0.1522  0.1116  0.1332
 1979UNK    C0117804  44.772   3.158   6.261  0.4973  0.0224  0.3351
 1979UNK    H0217805  44.711   3.195   6.179 -0.7359 -0.0942  1.1880
 1979UNK    C0317806  44.729   3.110   6.377  0.1327  1.0653  0.6002
 1979UNK    C0417807  44.584   3.094   6.408 -0.2773 -0.2919 -0.0594
 1979UNK    F0517808  44.554   3.098   6.538  0.0319  0.6699  0.5508
 1979UNK    F0617809  44.511   3.185   6.344  0.3722  0.0019 -0.3475
 1979UNK    F0717810  44.555   2.968   6.376 -0.3964  0.1017  0.1568
 1979UNK    H0817811  44.796   3.083   6.457  0.0398  0.4218  0.4689
 1980UNK    F0017812  50.231   4.152   2.128 -0.7817 -0.4438  0.1825
 1980UNK    C0117813  50.133   4.126   2.045 -0.4449 -0.2533 -0.6655
 1980UNK    H0217814  50.172   4.056   1.971  0.0638 -0.9851  0.2704
 1980UNK    C0317815  50.014   4.116   2.110 -0.1768 -0.0649 -0.3440
 1980UNK    C0417816  49.902   4.035   2.067  0.0122  0.1271  0.9595
 1980UNK    F0517817  49.907   3.909   2.116 -0.1235  0.0326  0.7406
 1980UNK    F0617818  49.784   4.092   2.106 -0.1911  0.1239  0.3315
 1980UNK    F0717819  49.876   4.050   1.931 -0.5106 -0.0370  0.0624
 1980UNK    H0817820  49.990   4.176   2.197 -1.6501 -1.2861  0.1378
 1981UNK    F0017821  22.995   5.205  11.771  0.1348 -0.0720  0.0443
 1981UNK    C0117822  23.063   5.313  11.725 -0.2716 -0.3454 -0.6406
 1981UNK    H0217823  23.171   5.299  11.730 -0.2820 -0.2274 -0.0155
 1981UNK    C0317824  22.999   5.396  11.641 -0.5636 -0.0386  0.0729
 1981UNK    C0417825  23.062   5.457  11.522 -0.1490 -0.0548  0.1792
 1981UNK    F0517826  22.989   5.553  11.469 -0.2120  0.1325  0.4117
 1981UNK    F0617827  23.187   5.507  11.544 -0.5057  0.4210 -0.3430
 1981UNK    F0717828  23.080   5.362  11.431 -0.0693 -0.3097 -0.5111
 1981UNK    H0817829  22.892   5.405  11.634 -0.6875 -2.3234 -1.1054
 1982UNK    F0017830  47.001   4.542   4.313 -0.3835 -0.2134 -0.1894
 1982UNK    C0117831  46.953   4.607   4.420  0.3023  0.4509  0.6847
 1982UNK    H0217832  46.964   4.716   4.418 -0.0872  0.4981  1.0715
 1982UNK    C0317833  46.890   4.526   4.502 -1.0957 -0.5045  0.1905
 1982UNK    C0417834  46.787   4.575   4.598  0.1715 -0.7599  0.5068
 1982UNK    F0517835  46.782   4.488   4.703  0.2137  0.1098 -0.3006
 1982UNK    F0617836  46.816   4.700   4.645  0.6146 -0.1387 -0.1302
 1982UNK    F0717837  46.670   4.585   4.540  0.3436  0.0674  0.3978
 1982UNK    H0817838  46.940   4.434   4.528  1.5087  0.1216 -2.2814
 1983UNK    F0017839  36.626   2.582  12.788 -0.2198  0.0524 -0.1219
 1983UNK    C0117840  36.497   2.568  12.769  0.0393  0.4813  0.1989
 1983UNK    H0217841  36.459   2.539  12.867  1.4964 -0.3264  0.5386
 1983UNK    C0317842  36.434   2.596  12.655  0.1356 -0.0555  0.6102
 1983UNK    C0417843  36.288   2.612  12.653  0.0980 -0.0960 -0.3294
 1983UNK    F0517844  36.254   2.704  12.751 -0.3022 -0.3002 -0.1696
 1983UNK    F0617845  36.234   2.660  12.536  0.4348  0.3022 -0.2760
 1983UNK    F0717846  36.227   2.493  12.669  0.4497 -0.1478 -0.2036
 1983UNK    H0817847  36.476   2.670  12.588  1.2507 -1.0758  0.1599
 1984UNK    F0017848  18.613   2.204   3.279  0.0969 -0.1627  0.4145
 1984UNK    C0117849  18.710   2.240   3.369  0.4808  0.2814 -0.2416
 1984UNK    H0217850  18.800   2.178   3.368  0.5806  0.3613  1.8961
 1984UNK    C0317851  18.677   2.322   3.467 -0.1708 -0.3982 -1.1020
 1984UNK    C0417852  18.779   2.390   3.554  0.1316  0.0763 -0.2298
 1984UNK    F0517853  18.722   2.462   3.650 -0.7022 -0.7954 -0.2733
 1984UNK    F0617854  18.873   2.317   3.613 -0.0074  0.0381  0.3833
 1984UNK    F0717855  18.834   2.483   3.475 -0.4093  0.3393 -0.7144
 1984UNK    H0817856  18.582   2.328   3.518  0.3559 -1.8319  0.0847
 1985UNK    F0017857  24.705   3.519  13.749  0.2875  0.0856  0.4839
 1985UNK    C0117858  24.762   3.635  13.723 -0.2190  0.0631  0.1012
 1985UNK    H0217859  24.825   3.662  13.808  1.7134 -0.1639 -1.2405
 1985UNK    C0317860  24.751   3.685  13.596 -0.2419 -0.1806 -0.4949
 1985UNK    C0417861  24.772   3.608  13.471 -0.3670 -0.2310 -0.0766
 1985UNK    F0517862  24.872   3.523  13.495  0.3296 -0.0813  0.2282
 1985UNK    F0617863  24.669   3.529  13.426 -0.7019  0.1174 -0.2283
 1985UNK    F0717864  24.822   3.695  13.384 -0.0189 -0.1467  0.2878
 1985UNK    H0817865  24.733   3.790  13.578 -0.5569 -0.6430 -3.0179
 1986UNK    F0017866  10.595   1.172   9.300  0.5792  0.2687  0.5575
 1986UNK    C0117867  10.648   1.268   9.218 -0.8986 -0.2859 -0.3794
 1986UNK    H0217868  10.670   1.230   9.118  0.9701 -1.1482  0.3256
 1986UNK    C0317869  10.685   1.384   9.268 -0.0974 -1.6979 -0.3909
 1986UNK    C0417870  10.692   1.520   9.202  0.5672  0.0361 -0.4078
 1986UNK    F0517871  10.577   1.600   9.226  0.0740  0.2011  0.2723
 1986UNK    F0617872  10.806   1.579   9.228  0.2162 -0.0901  0.5913
 1986UNK    F0717873  10.683   1.489   9.071  0.2004  0.1023 -0.6146
 1986UNK    H0817874  10.692   1.404   9.374  1.7379 -2.0866 -0.4219
 1987UNK    F0017875   1.746   4.141   9.680  0.3534 -0.0435 -0.3998
 1987UNK    C0117876   1.628   4.121   9.620 -0.7250 -0.2676  0.0479
 1987UNK    H0217877   1.634   4.077   9.520 -2.5584 -0.6602  0.0980
 1987UNK    C0317878   1.523   4.177   9.674  0.2973 -0.4311  0.4946
 1987UNK    C0417879   1.390   4.122   9.653  0.3649  0.2648  0.3214
 1987UNK    F0517880   1.298   4.218   9.677 -0.3899 -0.4280 -0.0636
 1987UNK    F0617881   1.358   4.074   9.527  0.4351  0.0068  0.6390
 1987UNK    F0717882   1.358   4.023   9.742  0.8628  0.6285  0.5739
 1987UNK    H0817883   1.542   4.246   9.755  0.0724  0.8971 -0.5584
 1988UNK    F0017884   1.588   1.408   9.759 -0.5636 -0.0005 -0.4217
 1988UNK    C0117885   1.709   1.357   9.783  1.0268  0.1543  0.9377
 1988UNK    H0217886   1.783   1.409   9.722  1.6774 -1.7180  0.0911
 1988UNK    C0317887   1.735   1.316   9.906  0.4932 -0.3475 -0.1578
 1988UNK    C0417888   1.868   1.316   9.961 -0.2491 -0.3744  0.1651
 1988UNK    F0517889   1.862   1.242  10.069  0.3961  0.2869 -0.5421
 1988UNK    F0617890   1.955   1.241   9.879 -0.3338 -0.4918  0.6711
 1988UNK    F0717891   1.913   1.442   9.989 -0.8508 -0.3872  0.1400
 1988UNK    H0817892   1.674   1.236   9.945 -2.5273  2.6697  1.5785
 1989UNK    F0017893  38.349   3.627   2.860  0.3326  0.2532 -0.1857
 1989UNK    C0117894  38.441   3.618   2.763 -1.2608  0.1553  1.0464
 1989UNK    H0217895  38.420   3.692   2.685  0.2849 -1.1826 -0.6803
 1989UNK    C0317896  38.562   3.567   2.791  0.0638 -0.1696  0.5092
 1989UNK    C0417897  38.661   3.525   2.688 -0.0087 -0.2629  0.0011
 1989UNK    F0517898  38.701   3.641   2.622  0.4546  0.1717  0.0231
 1989UNK    F0617899  38.763   3.459   2.737  0.0701 -0.4685 -0.7473
 1989UNK    F0717900  38.615   3.443   2.590 -0.1705 -0.7892 -0.1626
 1989UNK    H0817901  38.618   3.624   2.864  0.7435  0.1564 -0.2688
 1990UNK    F0017902   2.685   0.739   5.864  0.1594  0.2790 -0.3351
 1990UNK    C0117903   2.702   0.795   5.984  0.0881  0.2580 -0.4615
 1990UNK    H0217904   2.793   0.755   6.028 -0.8089 -3.0855 -1.4729
 1990UNK    C0317905   2.614   0.889   6.024 -0.4720  0.3052 -0.8810
 1990UNK    C0417906   2.625   0.962   6.154  0.2681  0.0627  0.3153
 1990UNK    F0517907   2.697   1.073   6.142 -0.2250  0.6135 -0.3184
 1990UNK    F0617908   2.508   0.990   6.209 -0.4700  0.1622  0.0480
 1990UNK    F0717909   2.696   0.891   6.246 -0.4813  0.4965  0.1721
 1990UNK    H0817910   2.532   0.916   5.960 -1.0037 -3.3516 -1.8414
 1991UNK    F0017911   7.255   3.893  13.935  0.2372  0.5859  0.3308
 1991UNK    C0117912   7.384   3.861  13.917  0.5654  0.5066 -0.4256
 1991UNK    H0217913   7.446   3.892  14.002  0.2557 -0.5229  0.1904
 1991UNK    C0317914   7.429   3.847  13.791  0.4662  0.5943  0.6246
 1991UNK    C0417915   7.505   3.723  13.758 -0.3707 -0.3942  0.0507
 1991UNK    F0517916   7.601   3.761  13.668  0.5354 -0.1697 -0.1995
 1991UNK    F0617917   7.563   3.657  13.863  0.4294 -0.1195 -0.2797
 1991UNK    F0717918   7.428   3.637  13.685 -0.2660  0.0819 -0.1927
 1991UNK    H0817919   7.385   3.889  13.702 -0.1838 -1.0946  0.1312
 1992UNK    F0017920  26.831   0.368   2.995  0.2909 -0.0706 -0.6489
 1992UNK    C0117921  26.865   0.469   3.081  0.0291 -0.9199  0.5691
 1992UNK    H0217922  26.966   0.446   3.115 -0.5797 -2.2539  1.5573
 1992UNK    C0317923  26.777   0.530   3.161 -0.8802  0.6356  0.1198
 1992UNK    C0417924  26.811   0.648   3.244 -0.4964  0.2552  0.4135
 1992UNK    F0517925  26.824   0.763   3.169 -0.3363  0.3739  0.1266
 1992UNK    F0617926  26.721   0.675   3.347  0.5990 -0.0943  0.1955
 1992UNK    F0717927  26.932   0.626   3.295  0.7759  0.6149  0.3599
 1992UNK    H0817928  26.689   0.484   3.204 -0.1122  0.0846  1.1310
 1993UNK    F0017929  38.901   4.698   6.030  0.3022 -0.1081  0.7403
 1993UNK    C0117930  39.015   4.667   5.971 -0.2647 -0.6872  0.4339
 1993UNK    H0217931  39.104   4.658   6.034 -0.6216  1.1825  1.2493
 1993UNK    C0317932  39.019   4.654   5.843 -0.5944  0.7289  0.3287
 1993UNK    C0417933  39.149   4.609   5.787  0.1335 -0.4672 -0.2124
 1993UNK    F0517934  39.156   4.649   5.657 -0.0902  0.2044 -0.5169
 1993UNK    F0617935  39.263   4.649   5.852 -0.0620  0.1742 -0.0627
 1993UNK    F0717936  39.152   4.477   5.801  0.1707  1.0611 -0.2754
 1993UNK    H0817937  38.937   4.623   5.779  1.4411 -0.1190 -1.9269
 1994UNK    F0017938  50.691   1.426   3.160 -0.3844 -0.2846  0.0577
 1994UNK    C0117939  50.759   1.531   3.208 -0.1034 -0.1570  0.0344
 1994UNK    H0217940  50.745   1.619   3.146  0.5611  0.2204  0.4085
 1994UNK    C0317941  50.808   1.529   3.332  0.4575  0.4955  0.5333
 1994UNK    C0417942  50.825   1.646   3.416  0.1971  0.2368 -0.2455
 1994UNK    F0517943  50.856   1.758   3.343  0.5113  0.9485 -0.4422
 1994UNK    F0617944  50.714   1.679   3.483 -0.1759 -0.1278 -0.1174
 1994UNK    F0717945  50.920   1.633   3.516 -0.1847  0.1242  0.3616
 1994UNK    H0817946  50.889   1.458   3.341 -1.0208 -1.1505  1.0971
 1995UNK    F0017947   9.366   4.990   4.435 -0.1302 -0.5204  0.3673
 1995UNK    C0117948   9.239   5.032   4.443  0.9318  0.0795  0.6695
 1995UNK    H0217949   9.194   4.949   4.498 -1.9538  1.4115  0.3714
 1995UNK    C0317950   9.206   5.154   4.408  0.4464  0.4332  0.1779
 1995UNK    C0417951   9.078   5.202   4.460  0.1511  0.0791 -0.1825
 1995UNK    F0517952   8.990   5.096   4.479 -0.1431 -0.3400 -0.0479
 1995UNK    F0617953   9.105   5.274   4.571  0.5587  0.4450  0.3092
 1995UNK    F0717954   9.013   5.294   4.379  0.6737 -0.2069  0.3424
 1995UNK    H0817955   9.276   5.220   4.359  0.3632 -0.5793 -1.3642
 1996UNK    F0017956   3.922   4.123   0.329 -0.2640  0.1582 -0.1800
 1996UNK    C0117957   3.980   4.183   0.434 -0.5666  0.1280 -0.0095
 1996UNK    H0217958   4.083   4.147   0.439  0.3637  2.1255 -3.1713
 1996UNK    C0317959   3.933   4.298   0.483  0.1279 -0.2508 -0.6202
 1996UNK    C0417960   3.828   4.315   0.586  0.5603  0.2710 -0.2999
 1996UNK    F0517961   3.898   4.337   0.697 -0.5686  0.3672 -0.7342
 1996UNK    F0617962   3.768   4.429   0.550  0.4347  1.0525 -0.5243
 1996UNK    F0717963   3.739   4.212   0.596  0.2691  0.5662  0.1200
 1996UNK    H0817964   3.971   4.398   0.471  1.8532 -0.8456 -0.3181
 1997UNK    F0017965  39.329   1.760  12.057  0.1049 -0.4326  0.0603
 1997UNK    C0117966  39.291   1.883  12.090 -0.5962  0.0198  0.0436
 1997UNK    H0217967  39.300   1.899  12.198  0.8643  1.4179 -0.2687
 1997UNK    C0317968  39.245   1.974  12.009  0.2441  0.6676  0.1988
 1997UNK    C0417969  39.107   1.979  11.974 -0.6845  0.6574  0.0096
 1997UNK    F0517970  39.081   2.041  11.858  0.1026 -0.1468  0.5189
 1997UNK    F0617971  39.069   1.846  11.957 -0.2628 -0.0080 -1.0969
 1997UNK    F0717972  39.028   2.016  12.078 -0.0725  0.1964 -0.1747
 1997UNK    H0817973  39.315   2.020  11.942  0.9012  0.1670  0.5300
 1998UNK    F0017974  30.219   2.822   6.400  0.3564  0.2229 -0.2557
 1998UNK    C0117975  30.090   2.856   6.425 -0.0944 -0.1848 -0.5488
 1998UNK    H0217976  30.063   2.948   6.374 -1.2794  0.9551  2.0564
 1998UNK    C0317977  30.006   2.759   6.462  0.0252 -0.5521  0.3916
 1998UNK    C0417978  29.862   2.755   6.462  0.5483 -0.5901 -0.4232
 1998UNK    F0517979  29.811   2.732   6.339  0.2191  0.5439  0.3608
 1998UNK    F0617980  29.826   2.659   6.551  0.1984  0.1769  0.0359
 1998UNK    F0717981  29.814   2.881   6.490  0.7296  0.5666 -0.3110
 1998UNK    H0817982  30.054   2.687   6.526  1.5270  3.1432  3.5725
 1999UNK    F0017983   0.715   0.211   9.599  0.4597 -1.1123  0.0989
 1999UNK    C0117984   0.739   0.256   9.479  0.2045 -0.0527 -0.5285
 1999UNK    H0217985   0.845   0.263   9.453 -0.1847  0.2474 -2.0762
 1999UNK    C0317986   0.636   0.284   9.398 -0.3337 -0.6005 -0.0048
 1999UNK    C0417987   0.656   0.309   9.257  0.2232  0.1192  0.4725
 1999UNK    F0517988   0.537   0.355   9.206  0.1875 -0.1072  0.0474
 1999UNK    F0617989   0.759   0.393   9.240  0.3747 -0.2953  0.3843
 1999UNK    F0717990   0.691   0.194   9.185 -0.1799  0.2750  0.4569
 1999UNK    H0817991   0.548   0.336   9.434  1.0124  0.3667  1.9995
 2000UNK    F0017992  10.495   2.589   4.770 -0.5068  0.6313  0.2335
 2000UNK    C0117993  10.454   2.685   4.851  0.0267  0.1384  0.4669
 2000UNK    H0217994  10.360   2.646   4.890  0.8713  0.0236  2.4247
 2000UNK    C0317995  10.496   2.813   4.845  0.3685  0.3414  0.5903
 2000UNK    C0417996  10.475   2.893   4.965 -0.4137 -0.4072  0.5327
 2000UNK    F0517997  10.365   2.866   5.037 -0.5687 -0.1374  0.5071
 2000UNK    F0617998  10.585   2.894   5.044 -0.0689 -0.2608 -0.0311
 2000UNK    F0717999  10.454   3.024   4.926  0.0815 -0.1404  0.0782
 2000UNK    H0818000  10.511   2.865   4.752  0.0900 -1.3630 -0.4169
 2001UNK    F0018001  19.088   3.853   3.649 -0.7174 -0.1497  0.0127
 2001UNK    C0118002  19.061   3.951   3.732 -0.4327 -0.4328  0.1557
 2001UNK    H0218003  19.095   3.932   3.834  1.0137 -1.1337 -0.4517
 2001UNK    C0318004  19.020   4.068   3.679 -0.1791 -0.3059 -0.0294
 2001UNK    C0418005  19.004   4.190   3.754 -0.1006 -0.3215  0.3062
 2001UNK    F0518006  18.895   4.252   3.699  0.4518  0.0270 -0.1155
 2001UNK    F0618007  18.982   4.167   3.886  0.2663 -0.4175 -0.1468
 2001UNK    F0718008  19.111   4.272   3.732 -0.3620 -0.5935 -0.1738
 2001UNK    H0818009  19.022   4.078   3.572  1.0690  1.0814  0.1037
 2002UNK    F0018010  29.005   3.384   4.643  0.4204  0.7574  0.0086
 2002UNK    C0118011  29.106   3.315   4.593 -0.5420 -0.3060 -0.0340
 2002UNK    H0218012  29.098   3.327   4.485 -0.1510  0.6588  0.0349
 2002UNK    C0318013  29.221   3.310   4.657  0.8560  0.4514 -0.5999
 2002UNK    C0418014  29.287   3.421   4.717 -0.3095 -0.1666 -0.3573
 2002UNK    F0518015  29.418   3.400   4.733 -0.2488 -0.1156  0.1112
 2002UNK    F0618016  29.264   3.526   4.637 -0.5900  0.1950 -0.2235
 2002UNK    F0718017  29.238   3.448   4.841 -0.6711 -0.3538 -0.0843
 2002UNK    H0818018  29.267   3.212   4.663  0.3571  0.2274 -0.4350
 2003UNK    F0018019  31.521   0.203   8.644 -0.4365  0.0612 -0.1561
 2003UNK    C0118020  31.479   0.309   8.714  0.2301  0.4553  0.6818
 2003UNK    H0218021  31.420   0.374   8.649  0.4640  0.1886  0.2069
 2003UNK    C0318022  31.563   0.361   8.804  0.2120 -0.4180  0.0892
 2003UNK    C0418023  31.518   0.445   8.917  0.1545 -0.2141 -1.0328
 2003UNK    F0518024  31.469   0.379   9.022  0.6763  0.7044 -0.1757
 2003UNK    F0618025  31.616   0.526   8.963 -0.4982  0.3490 -0.3824
 2003UNK    F0718026  31.419   0.532   8.871 -0.0697 -0.5605 -0.4460
 2003UNK    H0818027  31.665   0.363   8.770 -0.4320  1.6577 -1.7855
 2004UNK    F0018028  29.360   3.648   7.931 -0.1932  0.3157  0.0343
 2004UNK    C0118029  29.391   3.732   8.030  0.5543 -0.4128 -0.2771
 2004UNK    H0218030  29.414   3.830   7.987  2.4532 -1.6405 -2.2039
 2004UNK    C0318031  29.370   3.702   8.155 -0.2316 -0.5539  0.3708
 2004UNK    C0418032  29.472   3.620   8.226  0.0474 -0.2327  1.2758
 2004UNK    F0518033  29.595   3.683   8.251  0.1781 -0.5857 -0.1002
 2004UNK    F0618034  29.432   3.577   8.348 -0.3188  0.1333  0.6433
 2004UNK    F0718035  29.506   3.505   8.163 -0.5427 -0.5909 -0.0423
 2004UNK    H0818036  29.269   3.698   8.192 -0.1374 -3.2045  0.4301
 2005UNK    F0018037  47.134   2.861   9.370  0.6016 -0.1912  0.6174
 2005UNK    C0118038  47.032   2.940   9.417  0.2974 -0.1563 -0.6183
 2005UNK    H0218039  47.073   3.039   9.437 -2.4072  0.9939 -0.6199
 2005UNK    C0318040  46.912   2.887   9.415 -0.2907 -0.3172 -1.0387
 2005UNK    C0418041  46.786   2.957   9.431  0.2439 -0.9962 -0.0975
 2005UNK    F0518042  46.799   3.027   9.541  0.3219 -0.0772 -0.2550
 2005UNK    F0618043  46.748   3.039   9.329  0.0024  0.6843  0.3395
 2005UNK    F0718044  46.673   2.885   9.448 -0.1292  0.0329 -0.2787
 2005UNK    H0818045  46.900   2.780   9.417  0.7678 -0.4293  0.5308
 2006UNK    F0018046  40.871   5.129  12.470  0.3260  0.3753  0.2885
 2006UNK    C0118047  40.756   5.184  12.515 -0.1418  0.0986 -0.3881
 2006UNK    H0218048  40.770   5.248  12.601  0.1111 -0.1887 -0.2174
 2006UNK    C0318049  40.645   5.132  12.465 -0.4580 -0.5660 -0.1698
 2006UNK    C0418050  40.514   5.195  12.480  0.1657 -0.6607 -0.0100
 2006UNK    F0518051  40.508   5.310  12.409  0.1100 -0.3513 -0.1712
 2006UNK    F0618052  40.409   5.127  12.432  0.8187  0.2963  0.3239
 2006UNK    F0718053  40.484   5.221  12.608 -0.3818 -0.0212  0.0471
 2006UNK    H0818054  40.647   5.045  12.400  1.7349 -0.6359 -0.0489
 2007UNK    F0018055  29.458   4.956   3.162 -0.4399  0.3999  0.1680
 2007UNK    C0118056  29.410   4.847   3.222 -0.2169 -0.0689 -0.0539
 2007UNK    H0218057  29.411   4.761   3.154  2.4246  1.1167 -1.6129
 2007UNK    C0318058  29.397   4.829   3.358 -0.3234  0.2161 -0.3219
 2007UNK    C0418059  29.331   4.713   3.417  0.1362 -0.4110 -0.1804
 2007UNK    F0518060  29.198   4.711   3.379 -0.1868 -0.0294  0.7544
 2007UNK    F0618061  29.393   4.595   3.402  0.4005  0.5131 -0.3358
 2007UNK    F0718062  29.322   4.727   3.556  0.3498  0.0819 -0.1895
 2007UNK    H0818063  29.468   4.876   3.425 -1.5572  0.0137  1.1713
 2008UNK    F0018064  16.861   0.776   4.240 -0.1228 -0.5918  0.4128
 2008UNK    C0118065  16.742   0.717   4.222  0.7363 -0.2543  0.2719
 2008UNK    H0218066  16.764   0.619   4.265  1.4450  0.1127  0.7729
 2008UNK    C0318067  16.633   0.796   4.252  0.4126  0.8250  0.5336
 2008UNK    C0418068  16.571   0.904   4.174 -0.3444  0.8023  0.1673
 2008UNK    F0518069  16.528   1.011   4.242 -0.2442 -0.0210  0.3267
 2008UNK    F0618070  16.645   0.948   4.077 -0.4321  0.0692  0.2453
 2008UNK    F0718071  16.460   0.866   4.109 -0.3019  0.5755 -0.2052
 2008UNK    H0818072  16.604   0.809   4.356 -3.2378  0.6456 -0.3994
 2009UNK    F0018073  13.088   4.142  10.294 -0.0167 -0.1155  0.0575
 2009UNK    C0118074  12.967   4.112  10.247 -0.1212 -0.4740  0.7982
 2009UNK    H0218075  12.975   4.085  10.142 -0.8847  0.5705  0.4563
 2009UNK    C0318076  12.862   4.111  10.331  0.0347 -0.7883 -0.5470
 2009UNK    C0418077  12.744   4.030  10.313  0.0990  0.3128 -0.8264
 2009UNK    F0518078  12.705   4.039  10.184 -0.1386 -0.1489  0.3666
 2009UNK    F0618079  12.765   3.897  10.337  0.0246 -0.1128 -0.1067
 2009UNK    F0718080  12.640   4.075  10.394 -0.2915 -0.1985  0.4443
 2009UNK    H0818081  12.876   4.141  10.434 -0.3690 -1.2370 -0.3565
 2010UNK    F0018082  12.394   3.122   1.662  0.1823  0.5405 -0.0851
 2010UNK    C0118083  12.348   3.126   1.790  0.2878 -0.6110  0.6532
 2010UNK    H0218084  12.239   3.122   1.789  0.2942 -0.6694  0.0857
 2010UNK    C0318085  12.425   3.072   1.883  0.6103 -0.7608  0.2461
 2010UNK    C0418086  12.383   2.989   2.004 -0.1366 -0.0967 -0.1780
 2010UNK    F0518087  12.275   3.036   2.071 -0.6414  0.2888  0.4439
 2010UNK    F0618088  12.338   2.872   1.957  0.3249  0.5197 -0.3915
 2010UNK    F0718089  12.489   2.974   2.087 -0.3883 -0.0486 -0.0628
 2010UNK    H0818090  12.532   3.089   1.881  0.9502 -2.0052  4.4189
 2011UNK    F0018091  49.878   1.886  10.900 -0.0960 -0.4912  0.1838
 2011UNK    C0118092  49.800   1.858  11.005  0.0407 -0.4215  0.0692
 2011UNK    H0218093  49.853   1.879  11.098 -0.9896 -0.2664  0.6303
 2011UNK    C0318094  49.669   1.872  10.994  0.6993  0.1819  0.1368
 2011UNK    C0418095  49.582   1.923  11.103 -0.4751 -0.1746  0.4200
 2011UNK    F0518096  49.452   1.899  11.077  0.0698  0.0428 -0.1302
 2011UNK    F0618097  49.610   1.853  11.221  0.2243 -0.5487  0.4657
 2011UNK    F0718098  49.603   2.054  11.135 -0.0616  0.3409  0.5764
 2011UNK    H0818099  49.626   1.894  10.898  0.6602 -1.7858 -0.3103
 2012UNK    F0018100  46.234   3.650   8.234  0.3784  0.0513  0.4014
 2012UNK    C0118101  46.148   3.562   8.177 -0.8840 -0.1101  0.7203
 2012UNK    H0218102  46.202   3.470   8.154  0.6004  1.4030 -2.0749
 2012UNK    C0318103  46.042   3.615   8.134 -0.5189  0.7892  0.2660
 2012UNK    C0418104  45.922   3.550   8.081  0.0767 -0.7669  0.6772
 2012UNK    F0518105  45.833   3.537   8.183  0.1990 -0.1927  0.5440
 2012UNK    F0618106  45.874   3.647   7.995 -0.8813  0.6385  0.8074
 2012UNK    F0718107  45.941   3.433   8.009  0.2461 -0.3644 -0.3689
 2012UNK    H0818108  46.033   3.723   8.134  0.3538  0.8929 -2.5647
 2013UNK    F0018109  44.227   3.476  11.808 -0.3555 -0.1155 -0.3165
 2013UNK    C0118110  44.137   3.469  11.709 -0.1771 -0.0221 -0.2325
 2013UNK    H0218111  44.131   3.379  11.648  0.0734 -0.0407 -0.2279
 2013UNK    C0318112  44.056   3.575  11.676  0.2294  0.0607  0.0625
 2013UNK    C0418113  43.922   3.566  11.610  0.7393  0.1620  0.2323
 2013UNK    F0518114  43.919   3.475  11.510 -0.0580  0.3758  0.0344
 2013UNK    F0618115  43.830   3.545  11.705  0.4170  0.1036 -0.0561
 2013UNK    F0718116  43.896   3.694  11.551  0.0272 -0.1989  0.2236
 2013UNK    H0818117  44.080   3.667  11.729  0.7857  0.8421 -1.5270
 2014UNK    F0018118  25.043   4.603   3.463 -0.4219  0.4279 -0.2385
 2014UNK    C0118119  24.951   4.696   3.464 -0.2907 -0.6932 -0.2544
 2014UNK    H0218120  24.912   4.710   3.565  0.7533 -1.3432  0.2456
 2014UNK    C0318121  24.915   4.760   3.352 -0.0609 -0.4594 -0.1454
 2014UNK    C0418122  24.799   4.847   3.333 -0.0706 -0.0989  0.1727
 2014UNK    F0518123  24.773   4.935   3.432 -0.2022  0.0625  0.4945
 2014UNK    F0618124  24.837   4.915   3.224  0.3465  0.5613  0.0388
 2014UNK    F0718125  24.696   4.756   3.302  0.4074  0.1509 -0.2743
 2014UNK    H0818126  24.970   4.744   3.261 -0.8059 -2.6989 -0.2254
 2015UNK    F0018127  43.887   3.143   6.214 -0.2752  0.3367 -0.1445
 2015UNK    C0118128  43.853   3.089   6.098  0.0624  0.1873  0.1791
 2015UNK    H0218129  43.749   3.110   6.076 -0.0936 -0.4878  0.2842
 2015UNK    C0318130  43.938   3.027   6.018  0.4433  0.4163  0.4635
 2015UNK    C0418131  44.073   3.072   5.988 -0.6956 -0.2208 -0.0959
 2015UNK    F0518132  44.084   3.205   5.962  0.2111 -0.1178 -0.0033
 2015UNK    F0618133  44.163   3.043   6.088  0.4004 -0.1975  0.2395
 2015UNK    F0718134  44.120   3.007   5.878 -0.4266  0.4645 -0.1020
 2015UNK    H0818135  43.916   2.922   6.008  0.6642  0.5152 -1.3385
 2016UNK    F0018136  51.927   1.176  14.197 -0.0516 -0.4320 -0.1308
 2016UNK    C0118137  51.859   1.204  14.313  0.1772 -0.6089  0.0903
 2016UNK    H0218138  51.772   1.265  14.290 -0.9861 -1.6848  1.5305
 2016UNK    C0318139  51.871   1.092  14.395 -0.6255 -0.2953  0.5935
 2016UNK    C0418140  51.770   1.052  14.499 -0.0322  0.3272  0.2036
 2016UNK    F0518141  51.643   1.043  14.456 -0.4577 -0.1584 -0.3084
 2016UNK    F0618142  51.803   0.933  14.556  0.6245  0.4427  0.4415
 2016UNK    F0718143  51.779   1.140  14.600  0.1148  0.0398 -0.4905
 2016UNK    H0818144  51.963   1.037  14.409 -0.3172  0.4537  1.6131
 2017UNK    F0018145  50.114   2.606   9.030 -0.0594 -0.0720 -0.0360
 2017UNK    C0118146  50.111   2.589   8.900  0.4244  0.5368 -0.2908
 2017UNK    H0218147  50.088   2.484   8.887 -0.2894  0.6539 -0.0368
 2017UNK    C0318148  50.169   2.672   8.811 -0.5772  0.4831  0.7225
 2017UNK    C0418149  50.118   2.708   8.675 -0.3057 -0.2891  0.3773
 2017UNK    F0518150  50.217   2.731   8.592 -0.2683 -0.3019  0.0848
 2017UNK    F0618151  50.054   2.596   8.627 -0.6507  0.3943 -0.0967
 2017UNK    F0718152  50.040   2.823   8.665 -0.3349  0.3859  0.4473
 2017UNK    H0818153  50.250   2.736   8.844 -0.2660  0.4538  0.0188
 2018UNK    F0018154   8.464   4.083  12.916  0.7311  0.1787  0.6749
 2018UNK    C0118155   8.507   4.058  12.793 -0.4135 -0.0259 -0.0678
 2018UNK    H0218156   8.440   4.014  12.718 -0.0986  0.2328 -0.4984
 2018UNK    C0318157   8.635   4.083  12.773 -0.3507 -0.3261  0.3390
 2018UNK    C0418158   8.684   4.179  12.672  0.3555 -0.2227 -0.5698
 2018UNK    F0518159   8.686   4.314  12.712  0.0565 -0.0285 -0.4002
 2018UNK    F0618160   8.811   4.152  12.643 -0.1187 -0.6456 -0.1142
 2018UNK    F0718161   8.615   4.155  12.557 -0.1550  0.9871 -0.0563
 2018UNK    H0818162   8.704   4.062  12.853  0.2347  1.3671  0.3002
 2019UNK    F0018163  48.066   0.924   5.439 -0.2756  0.4142 -0.7517
 2019UNK    C0118164  48.072   0.892   5.306  0.8405  1.0474  0.1073
 2019UNK    H0218165  48.167   0.926   5.265  1.6001 -0.1654  0.8257
 2019UNK    C0318166  48.028   0.769   5.275 -0.5920 -0.4128 -0.2494
 2019UNK    C0418167  48.047   0.723   5.139  0.0099  0.8638 -0.2101
 2019UNK    F0518168  48.007   0.819   5.052  0.0180 -0.3197  0.4394
 2019UNK    F0618169  48.178   0.702   5.108  0.1668 -0.3687 -0.7455
 2019UNK    F0718170  47.974   0.612   5.126  0.0496 -0.0661  0.0283
 2019UNK    H0818171  47.960   0.717   5.341 -1.6385 -0.2126 -1.1789
 2020UNK    F0018172  18.660   4.620   5.425 -0.7160  0.0179 -0.0518
 2020UNK    C0118173  18.535   4.577   5.402  0.0029  0.3951  0.0130
 2020UNK    H0218174  18.461   4.656   5.390  1.1194  1.5519  0.7156
 2020UNK    C0318175  18.534   4.445   5.366 -0.2220 -0.5538 -0.0713
 2020UNK    C0418176  18.444   4.392   5.259  0.0345  0.6560 -0.3127
 2020UNK    F0518177  18.488   4.433   5.140 -0.2065 -0.4893 -0.4532
 2020UNK    F0618178  18.443   4.258   5.273  0.2250  0.1939  0.1195
 2020UNK    F0718179  18.315   4.433   5.255  0.1880 -0.1118 -0.3601
 2020UNK    H0818180  18.572   4.366   5.430  2.4761  0.6553 -0.1155
 2021UNK    F0018181  24.337   0.197   6.502  0.2664  0.2205  0.7701
 2021UNK    C0118182  24.376   0.299   6.430 -0.0216 -0.5119 -0.6415
 2021UNK    H0218183  24.291   0.365   6.412 -0.8525 -1.3194  0.2723
 2021UNK    C0318184  24.502   0.329   6.437  0.2082  0.8640 -0.0698
 2021UNK    C0418185  24.561   0.455   6.398 -0.2392 -0.5927 -0.2410
 2021UNK    F0518186  24.693   0.448   6.376 -0.4005  0.1280 -0.2787
 2021UNK    F0618187  24.515   0.491   6.275  0.2730 -0.0984  0.2417
 2021UNK    F0718188  24.541   0.560   6.490  0.5698 -0.3196 -0.0170
 2021UNK    H0818189  24.577   0.254   6.458 -1.1336 -0.8519 -1.1981
 2022UNK    F0018190  24.788   4.402  10.203 -0.4955  0.2907 -0.0876
 2022UNK    C0118191  24.712   4.343  10.300  0.0027  0.6264 -0.2585
 2022UNK    H0218192  24.699   4.235  10.298 -0.6840  0.6250  2.1207
 2022UNK    C0318193  24.670   4.419  10.401 -0.0151  0.3157 -0.2410
 2022UNK    C0418194  24.619   4.384  10.533 -0.3417  0.2986 -0.4731
 2022UNK    F0518195  24.713   4.317  10.607  0.3890 -0.1984  0.3705
 2022UNK    F0618196  24.584   4.490  10.609  0.4210  0.7242  0.3247
 2022UNK    F0718197  24.513   4.307  10.511  0.6900  0.0161  0.2467
 2022UNK    H0818198  24.707   4.520  10.416  1.0698 -0.4060  2.1738
 2023UNK    F0018199  16.630   5.004   4.056 -0.3286 -0.3598  0.2184
 2023UNK    C0118200  16.639   5.034   4.182  0.9234  0.1274  0.1713
 2023UNK    H0218201  16.728   5.096   4.191 -1.6071  3.7754  1.0195
 2023UNK    C0318202  16.534   5.020   4.260  0.3345 -0.0873 -0.0116
 2023UNK    C0418203  16.396   5.012   4.212 -0.6317 -0.0504  0.4093
 2023UNK    F0518204  16.361   4.886   4.172  0.7457 -0.0493 -0.4998
 2023UNK    F0618205  16.303   5.051   4.302 -0.1165  0.1567 -0.2264
 2023UNK    F0718206  16.369   5.101   4.115 -0.9513  0.0303 -0.4205
 2023UNK    H0818207  16.546   4.952   4.343  1.0554 -1.7653 -1.4633
 2024UNK    F0018208  49.221   4.616  12.971  0.5103 -0.0255 -0.6980
 2024UNK    C0118209  49.163   4.734  12.982  0.3082  0.2651 -0.8067
 2024UNK    H0218210  49.159   4.757  13.088  0.4716 -0.5706 -0.6162
 2024UNK    C0318211  49.156   4.806  12.877 -0.2675 -0.5871  0.1925
 2024UNK    C0418212  49.129   4.951  12.875 -0.9644  1.0123  0.1223
 2024UNK    F0518213  49.066   4.986  12.760 -0.0460  0.3647 -0.1048
 2024UNK    F0618214  49.061   4.997  12.983 -0.0143 -0.4391 -0.1104
 2024UNK    F0718215  49.242   5.030  12.872  0.3027 -0.1265  0.2907
 2024UNK    H0818216  49.157   4.756  12.781  1.4153 -1.3148  0.5761
 2025UNK    F0018217   7.322   4.947  13.108  0.4342  0.5241 -0.1241
 2025UNK    C0118218   7.435   4.993  13.159 -0.7274  0.1546 -0.1047
 2025UNK    H0218219   7.517   5.013  13.090 -2.5571  1.2373 -2.0011
 2025UNK    C0318220   7.436   5.009  13.292  0.2918 -0.1829 -0.6831
 2025UNK    C0418221   7.504   4.926  13.396 -0.2272  0.6360  0.3521
 2025UNK    F0518222   7.433   4.929  13.516 -0.2375 -0.2123  0.0712
 2025UNK    F0618223   7.516   4.789  13.370 -1.0038 -0.3021 -0.4617
 2025UNK    F0718224   7.631   4.964  13.419 -0.3226  0.1885 -0.3333
 2025UNK    H0818225   7.367   5.081  13.334 -1.1087 -2.6392  1.3506
 2026UNK    F0018226  20.262   1.711   5.185  0.6069 -0.1826  0.4384
 2026UNK    C0118227  20.291   1.782   5.294  0.1841 -0.6688  0.7832
 2026UNK    H0218228  20.305   1.886   5.264 -0.1415 -0.5586  1.0174
 2026UNK    C0318229  20.266   1.739   5.415  0.0810 -0.2790  0.0936
 2026UNK    C0418230  20.378   1.676   5.486 -0.5543 -0.0661 -0.0637
 2026UNK    F0518231  20.333   1.596   5.588  0.3935  0.1240 -0.1164
 2026UNK    F0618232  20.441   1.598   5.400  0.5406  0.4388 -0.1893
 2026UNK    F0718233  20.463   1.767   5.540 -0.0839  0.2783  0.7950
 2026UNK    H0818234  20.175   1.684   5.429  0.9419 -2.3414 -1.8914
 2027UNK    F0018235  50.338   0.888   6.336  0.2264  0.6595 -0.2105
 2027UNK    C0118236  50.249   0.991   6.338 -0.6478  0.4884  0.3955
 2027UNK    H0218237  50.216   1.003   6.235  1.3038 -3.2832 -0.7446
 2027UNK    C0318238  50.158   0.976   6.435 -0.8121  0.0717 -0.1003
 2027UNK    C0418239  50.082   0.849   6.439  0.1341  0.5245  0.2082
 2027UNK    F0518240  50.127   0.783   6.545 -0.3912  0.2280 -0.3011
 2027UNK    F0618241  49.965   0.898   6.476 -0.6167  0.3740 -0.2481
 2027UNK    F0718242  50.075   0.783   6.319 -0.4838 -0.1843  0.0573
 2027UNK    H0818243  50.094   1.063   6.445  2.5651  2.4939  1.4538
 2028UNK    F0018244  16.634   4.987   5.036  0.5732 -0.3893 -0.1777
 2028UNK    C0118245  16.504   4.956   5.023 -0.5258  0.7983  0.3069
 2028UNK    H0218246  16.496   4.918   4.921 -1.7291  1.3920  0.1760
 2028UNK    C0318247  16.418   5.027   5.092 -0.0220 -0.5522  0.6157
 2028UNK    C0418248  16.302   4.958   5.152 -0.3971  0.1252  0.2019
 2028UNK    F0518249  16.211   5.045   5.199 -0.2984 -0.2742 -0.2022
 2028UNK    F0618250  16.238   4.882   5.057 -0.2250 -0.1493 -0.2904
 2028UNK    F0718251  16.333   4.874   5.256 -0.1114  0.1136 -0.2297
 2028UNK    H0818252  16.461   5.111   5.144  1.1616 -0.8055  0.0493
 2029UNK    F0018253  40.957   4.295   5.345  0.0915 -0.3781 -0.4103
 2029UNK    C0118254  40.886   4.401   5.388 -0.5242  0.1082 -0.1788
 2029UNK    H0218255  40.796   4.366   5.439 -0.5312  1.4869  0.7934
 2029UNK    C0318256  40.902   4.519   5.327 -0.7485 -0.2767  0.0141
 2029UNK    C0418257  40.856   4.653   5.369 -0.2189 -0.0012 -0.2895
 2029UNK    F0518258  40.939   4.699   5.469  0.2869 -0.1293  0.1639
 2029UNK    F0618259  40.868   4.743   5.271  0.1276 -0.3621  0.0074
 2029UNK    F0718260  40.732   4.652   5.423 -0.6944  0.2452 -0.0316
 2029UNK    H0818261  40.962   4.526   5.237 -0.4563 -0.5311  0.1929
 2030UNK    F0018262  22.147   4.445   0.728 -0.4938 -0.5060  0.0952
 2030UNK    C0118263  22.122   4.383   0.612  1.1667  0.2721 -0.0749
 2030UNK    H0218264  22.209   4.328   0.576 -0.7704 -2.6442 -0.4878
 2030UNK    C0318265  21.998   4.400   0.553  0.2852 -0.5560 -0.0779
 2030UNK    C0418266  21.915   4.297   0.487 -0.4227  0.6479 -0.9252
 2030UNK    F0518267  21.821   4.363   0.425  0.0860  0.6183  0.1150
 2030UNK    F0618268  21.991   4.233   0.394 -0.2857  0.5938 -0.3585
 2030UNK    F0718269  21.865   4.223   0.589  0.4566  0.1548  0.1302
 2030UNK    H0818270  21.975   4.487   0.494  0.7131 -0.3363  0.0806
 2031UNK    F0018271   2.730   2.029   3.327 -0.1701 -0.2552 -0.4995
 2031UNK    C0118272   2.614   1.981   3.379 -0.1068 -0.1569  0.6807
 2031UNK    H0218273   2.551   1.943   3.299 -1.3738  0.4264  1.3745
 2031UNK    C0318274   2.622   1.940   3.502 -0.2788 -0.6276 -0.4728
 2031UNK    C0418275   2.590   1.807   3.548  0.2512 -0.5043 -0.0405
 2031UNK    F0518276   2.605   1.793   3.681  0.3658  0.1722 -0.1843
 2031UNK    F0618277   2.461   1.769   3.515  0.5279  0.1940 -0.2885
 2031UNK    F0718278   2.660   1.700   3.499  0.1398 -0.2814  0.0110
 2031UNK    H0818279   2.707   1.975   3.560 -0.1377 -1.3599 -0.2251
 2032UNK    F0018280  18.500   4.473   2.054 -0.2711  0.2895  0.0234
 2032UNK    C0118281  18.562   4.452   2.169 -0.2153  0.3684  0.1497
 2032UNK    H0218282  18.485   4.420   2.240 -0.8006 -0.1901 -0.7286
 2032UNK    C0318283  18.687   4.482   2.189 -0.4543  0.4108  0.1227
 2032UNK    C0418284  18.778   4.391   2.257 -0.0407 -0.5752  0.0978
 2032UNK    F0518285  18.722   4.334   2.362  0.3418 -0.4810  0.1963
 2032UNK    F0618286  18.800   4.295   2.168  0.4968 -0.4480 -0.5818
 2032UNK    F0718287  18.897   4.453   2.286  0.3172  0.0061  0.3319
 2032UNK    H0818288  18.748   4.533   2.116  0.9532  0.1970  1.1288
 2033UNK    F0018289  45.958   1.487   3.621 -0.6173 -0.2035  0.0775
 2033UNK    C0118290  45.940   1.360   3.591  0.0401  1.0098  0.0972
 2033UNK    H0218291  45.918   1.293   3.674 -1.8197  0.5176 -0.7751
 2033UNK    C0318292  45.928   1.331   3.461 -0.1281 -0.6004  0.9325
 2033UNK    C0418293  45.859   1.218   3.409 -0.0908  0.1740 -0.5393
 2033UNK    F0518294  45.839   1.115   3.493  0.1817 -0.0571  0.2927
 2033UNK    F0618295  45.745   1.244   3.342  0.3950 -0.2524  0.3337
 2033UNK    F0718296  45.942   1.167   3.314 -0.0796 -0.2348 -0.5518
 2033UNK    H0818297  45.952   1.395   3.378 -1.5659 -1.8736 -0.4979
 2034UNK    F0018298  18.805   0.635   9.731  0.2301 -0.0137 -0.4891
 2034UNK    C0118299  18.692   0.707   9.693  0.1978 -0.2207  0.2318
 2034UNK    H0218300  18.716   0.792   9.628 -2.3816  0.3409 -0.0299
 2034UNK    C0318301  18.570   0.668   9.737 -0.3402 -0.8796  0.0584
 2034UNK    C0418302  18.511   0.727   9.856 -0.2523 -0.3607 -0.1662
 2034UNK    F0518303  18.446   0.638   9.934  0.1557  0.6041 -0.5642
 2034UNK    F0618304  18.604   0.789   9.932  0.0245 -0.3124  0.1996
 2034UNK    F0718305  18.419   0.825   9.835  0.4948 -0.1444 -0.0656
 2034UNK    H0818306  18.541   0.565   9.723  2.5176 -1.7211 -0.1026
 2035UNK    F0018307   6.994   3.273   7.262  0.2058 -0.4200  0.0656
 2035UNK    C0118308   7.011   3.399   7.215  0.1675 -0.3464  0.0319
 2035UNK    H0218309   7.081   3.405   7.132 -0.9628  1.0353 -0.8394
 2035UNK    C0318310   6.958   3.502   7.282 -0.4454  0.5084 -0.1416
 2035UNK    C0418311   6.937   3.634   7.227  0.1047 -0.4605 -0.1703
 2035UNK    F0518312   6.900   3.716   7.326 -0.0046 -0.2693 -0.0315
 2035UNK    F0618313   7.049   3.688   7.174 -0.0614  0.0959 -0.2647
 2035UNK    F0718314   6.845   3.631   7.127 -0.4736  0.4412 -0.3546
 2035UNK    H0818315   6.964   3.500   7.390  1.9457  2.3798 -0.2116
 2036UNK    F0018316  16.315   2.551   5.630 -0.4777  0.0420  0.2288
 2036UNK    C0118317  16.320   2.418   5.610  0.3626  0.0995 -0.4884
 2036UNK    H0218318  16.253   2.385   5.531  1.5423 -0.0160 -1.4481
 2036UNK    C0318319  16.401   2.344   5.683 -0.0189 -0.5963  0.1196
 2036UNK    C0418320  16.377   2.347   5.829  0.4500 -0.4526  0.4759
 2036UNK    F0518321  16.262   2.277   5.851  0.9088 -0.2210  0.4966
 2036UNK    F0618322  16.477   2.303   5.910 -0.1143  0.3584  0.4912
 2036UNK    F0718323  16.359   2.471   5.884  0.2766 -0.1109  0.0955
 2036UNK    H0818324  16.435   2.245   5.657  1.0571 -0.3698  0.6623
 2037UNK    F0018325  30.153   4.346  10.588 -0.0188  1.1121  0.6734
 2037UNK    C0118326  30.120   4.430  10.490  0.2537 -0.0877 -0.8193
 2037UNK    H0218327  30.025   4.401  10.446  0.7690 -0.0617 -1.9589
 2037UNK    C0318328  30.196   4.545  10.486  0.2824 -0.1483 -0.7665
 2037UNK    C0418329  30.331   4.599  10.459 -0.7368 -0.0658  0.3290
 2037UNK    F0518330  30.336   4.614  10.323  0.1135  0.1199  0.0108
 2037UNK    F0618331  30.349   4.729  10.495 -0.0266  0.4823  0.1968
 2037UNK    F0718332  30.439   4.530  10.513 -0.5546 -0.6697  0.2288
 2037UNK    H0818333  30.156   4.623  10.550 -1.6449 -2.4124  0.8876
 2038UNK    F0018334   8.090   1.558   7.122  0.8072  0.6637  0.7678
 2038UNK    C0118335   8.133   1.673   7.179 -0.0585 -0.3284  0.1660
 2038UNK    H0218336   8.055   1.747   7.160 -2.1626 -1.8419  2.6265
 2038UNK    C0318337   8.249   1.680   7.231 -0.2596  0.2998  0.3851
 2038UNK    C0418338   8.310   1.570   7.311 -0.3966 -0.3814  0.3064
 2038UNK    F0518339   8.434   1.601   7.359  0.0642  0.8594 -0.5898
 2038UNK    F0618340   8.249   1.568   7.425  0.1053  0.2120 -0.3714
 2038UNK    F0718341   8.302   1.450   7.250 -0.1299 -0.4417  0.4164
 2038UNK    H0818342   8.284   1.773   7.275 -0.7618  1.3955 -1.4903
 2039UNK    F0018343  39.546   1.070   4.324 -0.1362 -0.6468  0.6242
 2039UNK    C0118344  39.499   1.197   4.314  0.6142  0.0916 -0.3886
 2039UNK    H0218345  39.436   1.231   4.396  1.4570  0.1445  0.2399
 2039UNK    C0318346  39.516   1.264   4.199  0.2306  0.2424 -0.0350
 2039UNK    C0418347  39.467   1.401   4.166  0.6344  0.3875 -0.0664
 2039UNK    F0518348  39.544   1.451   4.064  0.6886 -0.0086  0.1016
 2039UNK    F0618349  39.337   1.399   4.122 -0.4456  0.3813 -0.1827
 2039UNK    F0718350  39.490   1.481   4.276 -0.5449  0.3557 -0.0566
 2039UNK    H0818351  39.562   1.208   4.119  1.3326  1.7007 -0.4317
 2040UNK    F0018352  49.921   4.428   7.292  0.8015 -0.0409  0.4490
 2040UNK    C0118353  49.914   4.506   7.181 -0.1637  0.3319 -0.1940
 2040UNK    H0218354  49.993   4.581   7.173  0.1622 -0.3575 -4.1643
 2040UNK    C0318355  49.839   4.476   7.075 -0.5650 -1.0867  0.0808
 2040UNK    C0418356  49.860   4.521   6.938 -0.4494  0.3714 -0.2308
 2040UNK    F0518357  49.898   4.648   6.935 -0.8564 -0.5043  0.2441
 2040UNK    F0618358  49.959   4.446   6.875  0.0941 -0.4551 -0.4303
 2040UNK    F0718359  49.749   4.498   6.874 -0.0063 -0.0651 -0.0652
 2040UNK    H0818360  49.739   4.438   7.092 -1.2055  0.4603 -0.1408
 2041UNK    F0018361  35.120   4.855  11.094 -0.5527  0.0365 -0.3250
 2041UNK    C0118362  35.026   4.818  11.184  0.1702 -0.4785 -0.2997
 2041UNK    H0218363  35.038   4.886  11.269 -0.0554 -1.3194  0.4170
 2041UNK    C0318364  35.016   4.683  11.177  0.4395 -0.2501  0.0071
 2041UNK    C0418365  34.918   4.607  11.265  0.7419  0.0616 -0.5121
 2041UNK    F0518366  34.800   4.677  11.292  0.7137 -0.6849  0.0566
 2041UNK    F0618367  34.880   4.484  11.209  0.3473  0.2538  0.3675
 2041UNK    F0718368  34.974   4.574  11.385 -0.1697  0.3023  0.0309
 2041UNK    H0818369  35.019   4.633  11.081 -3.7374  1.1163 -0.9144
 2042UNK    F0018370  15.206   2.487   5.923  0.4154 -0.6455  0.4574
 2042UNK    C0118371  15.252   2.608   5.941 -0.0516 -0.2328 -0.2881
 2042UNK    H0218372  15.229   2.669   5.853  0.6199  1.6440  0.8093
 2042UNK    C0318373  15.364   2.612   6.013 -0.5190  0.7421  0.5313
 2042UNK    C0418374  15.398   2.723   6.100 -0.9252 -0.5900 -0.1872
 2042UNK    F0518375  15.524   2.688   6.145  0.0381  0.3065  0.0153
 2042UNK    F0618376  15.401   2.843   6.044 -0.3042 -0.3742 -0.1645
 2042UNK    F0718377  15.312   2.733   6.205 -0.0991 -0.2048  0.2665
 2042UNK    H0818378  15.425   2.523   6.018  0.1442  1.1912  0.4422
 2043UNK    F0018379   5.879   1.113   5.097 -0.2035  0.4942  0.1108
 2043UNK    C0118380   5.997   1.079   5.136 -0.0121 -0.0730  0.3174
 2043UNK    H0218381   6.039   1.020   5.054  0.2881 -0.1735  0.5441
 2043UNK    C0318382   6.055   1.152   5.229  0.6268  0.7009 -0.8896
 2043UNK    C0418383   6.193   1.131   5.270 -0.5122 -0.1887 -0.4684
 2043UNK    F0518384   6.228   1.203   5.381 -0.0881  0.0864  0.0418
 2043UNK    F0618385   6.230   1.004   5.285  0.0596  0.2513 -0.5133
 2043UNK    F0718386   6.269   1.174   5.165  0.1009  0.2070 -0.8585
 2043UNK    H0818387   5.994   1.175   5.315  2.4328 -0.2050  0.6625
 2044UNK    F0018388   0.339   0.017   6.478 -0.2229  0.1167  0.1935
 2044UNK    C0118389   0.374  -0.089   6.545 -0.1356 -0.4440  0.0331
 2044UNK    H0218390   0.291  -0.134   6.598 -1.8384  0.3115 -1.9474
 2044UNK    C0318391   0.510  -0.112   6.551  0.0696 -0.0924  0.2092
 2044UNK    C0418392   0.566  -0.245   6.535  0.0885 -0.4804 -0.0895
 2044UNK    F0518393   0.506  -0.336   6.618  0.5200  0.0397  0.6096
 2044UNK    F0618394   0.551  -0.300   6.415 -0.7537  0.4608  0.3137
 2044UNK    F0718395   0.697  -0.260   6.563  0.0265 -0.1640  0.0302
 2044UNK    H0818396   0.574  -0.054   6.616  0.0780  0.8065 -0.6110
 2045UNK    F0018397  44.229   2.892   6.292 -0.0675 -0.2075 -0.5415
 2045UNK    C0118398  44.137   2.857   6.387 -0.6147  0.4260  0.2256
 2045UNK    H0218399  44.175   2.787   6.461 -0.6033  0.5825  0.3649
 2045UNK    C0318400  44.010   2.884   6.371 -0.2914 -0.5851 -0.4957
 2045UNK    C0418401  43.902   2.859   6.470 -0.9723 -0.0995 -0.3522
 2045UNK    F0518402  43.777   2.837   6.423  0.1375 -0.2747 -0.1342
 2045UNK    F0618403  43.935   2.750   6.544 -0.0907  0.6566  0.1772
 2045UNK    F0718404  43.896   2.958   6.565  0.4196  0.0415 -0.1856
 2045UNK    H0818405  43.979   2.966   6.308 -0.2274 -0.4006 -0.2903
 2046UNK    F0018406  43.337   5.149   3.056  0.0361  0.0095 -0.1727
 2046UNK    C0118407  43.284   5.170   2.938  0.0758 -0.8398 -0.8379
 2046UNK    H0218408  43.177   5.154   2.941  0.4908 -3.8813 -0.6128
 2046UNK    C0318409  43.362   5.179   2.829 -0.1084  1.3473  0.1230
 2046UNK    C0418410  43.421   5.064   2.760 -0.7729 -0.0427 -0.8368
 2046UNK    F0518411  43.483   4.993   2.855 -0.1309  0.0946  0.2362
 2046UNK    F0618412  43.331   4.990   2.689  0.3636 -0.9923  0.3839
 2046UNK    F0718413  43.517   5.108   2.664  0.2812  0.2655  0.1595
 2046UNK    H0818414  43.436   5.258   2.824  0.2565  1.1826  2.2644
 2047UNK    F0018415  22.296   3.164  10.325  0.1763 -0.0817  0.0035
 2047UNK    C0118416  22.357   3.189  10.441  0.1889 -1.3354  0.3992
 2047UNK    H0218417  22.339   3.293  10.472 -2.0163 -1.3293 -0.7852
 2047UNK    C0318418  22.413   3.094  10.511  1.0120  0.1323 -0.0698
 2047UNK    C0418419  22.429   3.115  10.656 -0.0840 -0.1255  0.0940
 2047UNK    F0518420  22.455   3.245  10.672  0.3853  0.5457 -0.0615
 2047UNK    F0618421  22.312   3.075  10.713 -0.1724  0.1847 -0.3095
 2047UNK    F0718422  22.525   3.045  10.717 -0.5600  0.4246 -0.2268
 2047UNK    H0818423  22.393   2.991  10.489 -3.2287  0.4319  1.9418
 2048UNK    F0018424  18.154   3.874   2.092  0.0485  0.4097 -0.0379
 2048UNK    C0118425  18.082   3.800   2.181  0.9475 -0.6328 -0.2753
 2048UNK    H0218426  18.120   3.700   2.202  2.2988  0.7521  4.4513
 2048UNK    C0318427  17.956   3.822   2.197 -0.3850 -0.3213 -0.3399
 2048UNK    C0418428  17.848   3.749   2.123  0.6536 -0.8095 -0.4412
 2048UNK    F0518429  17.725   3.811   2.147  0.6208 -0.2496 -0.4648
 2048UNK    F0618430  17.855   3.752   1.992  0.1928 -0.0879 -0.0095
 2048UNK    F0718431  17.849   3.620   2.171 -0.3659  0.3849 -0.4945
 2048UNK    H0818432  17.924   3.886   2.277  0.1126  2.2400 -2.1366
 2049UNK    F0018433  46.648   2.179  13.528 -0.1975  0.4461  0.6619
 2049UNK    C0118434  46.717   2.299  13.529  0.3672  0.1322 -0.4109
 2049UNK    H0218435  46.679   2.368  13.605 -0.5610 -0.1776 -0.5901
 2049UNK    C0318436  46.828   2.311  13.463  0.3554 -0.3996  0.3643
 2049UNK    C0418437  46.905   2.436  13.468  0.0742  0.0739  0.2056
 2049UNK    F0518438  46.974   2.427  13.589 -0.4702 -0.4172 -0.7039
 2049UNK    F0618439  46.990   2.454  13.365 -0.1461 -0.4864 -0.4480
 2049UNK    F0718440  46.829   2.548  13.476  0.2466  0.4927 -0.0642
 2049UNK    H0818441  46.874   2.229  13.410 -1.4633 -1.0210 -0.3002
 2050UNK    F0018442  28.448   1.978  10.292  0.2295 -0.3205 -0.1537
 2050UNK    C0118443  28.359   1.947  10.389  0.4838  0.0228  0.3455
 2050UNK    H0218444  28.265   1.908  10.349  0.3871  0.1797  0.4220
 2050UNK    C0318445  28.371   1.999  10.513  0.0719  0.0856  0.1987
 2050UNK    C0418446  28.329   1.940  10.640 -0.8127  0.0978  0.0921
 2050UNK    F0518447  28.314   2.034  10.740 -0.0280 -0.1032  0.6569
 2050UNK    F0618448  28.215   1.873  10.613  0.5924 -0.0958 -0.1764
 2050UNK    F0718449  28.421   1.847  10.682 -0.0400 -0.0322 -0.6781
 2050UNK    H0818450  28.417   2.096  10.523  0.6747 -0.2416  0.5711
 2051UNK    F0018451  16.003   3.896   9.469  0.1194  0.5342  0.0900
 2051UNK    C0118452  16.092   3.915   9.562 -0.4148  0.9976 -0.3369
 2051UNK    H0218453  16.135   4.014   9.546  0.7280  0.5079 -0.3046
 2051UNK    C0318454  16.142   3.809   9.629 -0.0745 -0.3007 -0.3973
 2051UNK    C0418455  16.254   3.730   9.580 -0.0477  0.2223 -0.5156
 2051UNK    F0518456  16.251   3.608   9.637 -0.3874 -0.1161  0.1469
 2051UNK    F0618457  16.245   3.707   9.446  0.0832 -0.2699 -0.0624
 2051UNK    F0718458  16.366   3.791   9.613 -0.6372 -0.3110 -0.2158
 2051UNK    H0818459  16.059   3.752   9.669 -1.6427  2.0680 -0.2057
 2052UNK    F0018460  41.196   3.411   8.502  0.3314  0.0155  0.4567
 2052UNK    C0118461  41.253   3.504   8.429 -0.5371  0.5725  0.8773
 2052UNK    H0218462  41.340   3.538   8.486  2.7609 -1.3564 -2.6907
 2052UNK    C0318463  41.185   3.549   8.325 -0.2499  0.6528  0.2785
 2052UNK    C0418464  41.076   3.648   8.326 -0.5151  0.3604 -0.4163
 2052UNK    F0518465  40.982   3.628   8.419 -0.2661 -0.0460  0.0561
 2052UNK    F0618466  41.108   3.775   8.341  0.3889 -0.3526 -0.3000
 2052UNK    F0718467  41.019   3.653   8.202 -0.0721 -0.3837 -0.3302
 2052UNK    H0818468  41.186   3.499   8.229 -1.7383 -1.8538  1.5180
 2053UNK    F0018469   5.584   2.264   5.640  0.1067 -0.4863  0.2095
 2053UNK    C0118470   5.528   2.379   5.665  0.4111  0.0376 -1.2127
 2053UNK    H0218471   5.566   2.456   5.597  0.5608  1.9623  0.9764
 2053UNK    C0318472   5.415   2.389   5.728  0.9120  0.3994 -0.1864
 2053UNK    C0418473   5.332   2.517   5.706 -0.2432 -0.6279 -0.2199
 2053UNK    F0518474   5.233   2.533   5.798  0.3617  0.3884 -0.1284
 2053UNK    F0618475   5.410   2.628   5.722  0.5276  0.0559  0.3219
 2053UNK    F0718476   5.282   2.520   5.581 -0.3679  0.2648  0.3976
 2053UNK    H0818477   5.400   2.355   5.830  0.2330 -0.8558 -0.6936
 2054UNK    F0018478  27.478   2.136  10.365  0.1122  0.1482 -0.1175
 2054UNK    C0118479  27.527   2.196  10.257 -0.5773 -0.0748 -0.2431
 2054UNK    H0218480  27.455   2.249  10.193 -0.7054 -0.5589 -0.4997
 2054UNK    C0318481  27.657   2.195  10.219  0.3977 -0.7693 -0.3855
 2054UNK    C0418482  27.717   2.280  10.121  0.3222  0.2085 -1.4882
 2054UNK    F0518483  27.619   2.308  10.027 -0.4537  0.2451 -0.2990
 2054UNK    F0618484  27.743   2.391  10.191 -0.3928  0.7190 -0.0678
 2054UNK    F0718485  27.834   2.241  10.065  0.7139  0.0277 -0.2558
 2054UNK    H0818486  27.733   2.159  10.287  1.9396  0.4129 -1.4696
 2055UNK    F0018487  35.997   1.940  13.013 -0.1531  0.1859 -0.2228
 2055UNK    C0118488  36.073   1.842  13.057 -0.0149  0.6866  0.2430
 2055UNK    H0218489  36.144   1.809  12.981  0.8979 -0.4640  1.5803
 2055UNK    C0318490  36.086   1.821  13.187 -0.8110  0.0265  0.2742
 2055UNK    C0418491  36.186   1.717  13.234  0.2981 -0.0519 -0.4613
 2055UNK    F0518492  36.167   1.686  13.366  0.3628  0.0942  0.0578
 2055UNK    F0618493  36.187   1.603  13.166 -0.2955 -0.1202  0.2441
 2055UNK    F0718494  36.304   1.783  13.214  0.4652 -0.1086  0.0474
 2055UNK    H0818495  36.003   1.841  13.253 -0.5186  0.5517  0.4797
 2056UNK    F0018496  29.104   1.422  10.045  0.0453 -0.0627  0.8695
 2056UNK    C0118497  29.018   1.353   9.977  0.4660  0.7089  0.2736
 2056UNK    H0218498  29.061   1.260   9.942 -0.4716  0.5756 -0.5605
 2056UNK    C0318499  28.908   1.418   9.944 -0.6410  0.1234 -0.6066
 2056UNK    C0418500  28.894   1.525   9.846  0.1212  0.1422  0.3739
 2056UNK    F0518501  28.782   1.598   9.865 -0.0238  0.1364  0.1095
 2056UNK    F0618502  28.992   1.618   9.848  0.1707  0.1191 -0.1229
 2056UNK    F0718503  28.889   1.476   9.720 -0.3788  0.3273  0.0427
 2056UNK    H0818504  28.814   1.399   9.995 -1.7874  0.3150 -2.5884
 2057UNK    F0018505  37.146   2.202   5.817 -0.2597  0.1394 -0.3037
 2057UNK    C0118506  37.171   2.282   5.924  0.2820  0.3993  0.4474
 2057UNK    H0218507  37.120   2.375   5.898  0.8918  0.2734 -1.2589
 2057UNK    C0318508  37.210   2.232   6.036  0.2368 -0.6292 -0.3738
 2057UNK    C0418509  37.346   2.254   6.090  0.1561 -0.5579  0.0565
 2057UNK    F0518510  37.342   2.322   6.206 -0.6119  0.2596 -0.0523
 2057UNK    F0618511  37.403   2.133   6.110 -0.4003 -0.5428 -0.5042
 2057UNK    F0718512  37.429   2.323   6.004  0.5683  0.1672  0.4224
 2057UNK    H0818513  37.130   2.208   6.104  0.9419 -0.5070  0.5138
 2058UNK    F0018514  47.872   4.265   6.236  0.7546  0.0370  0.5108
 2058UNK    C0118515  47.864   4.390   6.197 -0.0273  0.4950 -0.0693
 2058UNK    H0218516  47.930   4.416   6.114  0.4893 -0.0608  0.1636
 2058UNK    C0318517  47.745   4.445   6.216 -0.2086 -0.3052 -0.5699
 2058UNK    C0418518  47.700   4.551   6.122  0.6126  0.0918 -0.3484
 2058UNK    F0518519  47.810   4.620   6.085 -0.7547  0.5658 -0.1924
 2058UNK    F0618520  47.663   4.502   6.005  0.3578  0.8790  0.2088
 2058UNK    F0718521  47.604   4.628   6.174 -0.1051  0.0320  0.0150
 2058UNK    H0818522  47.682   4.417   6.299  2.0333 -0.4570  1.1343
 2059UNK    F0018523  46.057   4.340  14.321  0.0833 -0.4955  0.0217
 2059UNK    C0118524  46.119   4.245  14.388  0.0598  0.6240 -0.3069
 2059UNK    H0218525  46.053   4.198  14.460 -1.3782 -0.9189 -2.5546
 2059UNK    C0318526  46.230   4.184  14.331  0.0007  0.1586 -0.0419
 2059UNK    C0418527  46.292   4.060  14.377  0.1088  0.0075 -0.0103
 2059UNK    F0518528  46.430   4.061  14.360 -0.2019  0.3704  0.0343
 2059UNK    F0618529  46.273   4.045  14.512 -0.7015 -0.4644 -0.5902
 2059UNK    F0718530  46.255   3.945  14.318  0.1575  0.4962 -0.4150
 2059UNK    H0818531  46.273   4.230  14.243  2.1298  2.0698  1.9202
 2060UNK    F0018532  22.871   2.138   6.946 -0.1850  0.6419  0.5992
 2060UNK    C0118533  22.889   2.171   6.815  0.0199  1.0403 -0.3887
 2060UNK    H0218534  22.913   2.087   6.750 -0.0359 -0.5620  1.6107
 2060UNK    C0318535  22.833   2.278   6.762  0.4289 -0.2395  0.1361
 2060UNK    C0418536  22.902   2.407   6.759 -0.4854 -0.0216 -0.4451
 2060UNK    F0518537  22.808   2.507   6.725  0.1005 -0.4894  0.1801
 2060UNK    F0618538  22.960   2.434   6.881 -0.0449  0.0855 -0.0605
 2060UNK    F0718539  23.001   2.412   6.664 -0.0597  0.0087 -0.1691
 2060UNK    H0818540  22.726   2.289   6.756  0.2974 -1.7109 -0.4881
 2061UNK    F0018541  17.806   5.197  11.069  0.0645 -0.3286  0.1575
 2061UNK    C0118542  17.736   5.101  11.126 -0.2371 -0.3275  0.0807
 2061UNK    H0218543  17.634   5.128  11.154  0.0550  0.7554  0.1264
 2061UNK    C0318544  17.786   4.982  11.140 -0.4895  0.1345  0.7206
 2061UNK    C0418545  17.703   4.864  11.181  1.0213 -0.3776  0.0024
 2061UNK    F0518546  17.624   4.839  11.064 -0.4271 -0.1762 -0.0818
 2061UNK    F0618547  17.768   4.753  11.216 -0.0082 -0.2889 -0.0211
 2061UNK    F0718548  17.619   4.890  11.281 -0.2548 -0.3856  0.1403
 2061UNK    H0818549  17.892   4.983  11.164 -0.3439 -0.5528  0.1334
 2062UNK    F0018550   7.772   3.020   9.613  0.1222 -0.4314  0.6774
 2062UNK    C0118551   7.810   2.948   9.500  0.2880 -1.0786  0.2207
 2062UNK    H0218552   7.887   3.000   9.442  0.2702 -1.3298 -0.0279
 2062UNK    C0318553   7.765   2.834   9.458 -0.8822 -1.4187 -0.5391
 2062UNK    C0418554   7.816   2.730   9.370 -0.5010  0.3153  0.6081
 2062UNK    F0518555   7.717   2.643   9.342 -0.9185 -0.0261  0.3453
 2062UNK    F0618556   7.860   2.773   9.248  0.4083  0.7912  0.0012
 2062UNK    F0718557   7.923   2.672   9.416  0.7115 -0.0470 -0.1267
 2062UNK    H0818558   7.658   2.833   9.473 -0.9887 -0.9773 -1.2148
 2063UNK    F0018559   6.922   4.493   7.373  0.0301  0.9563  0.8204
 2063UNK    C0118560   6.823   4.407   7.342 -0.7770 -0.5232 -0.3636
 2063UNK    H0218561   6.830   4.314   7.397  0.3349  0.0492  0.4810
 2063UNK    C0318562   6.727   4.442   7.261 -0.0825 -0.0592  0.5834
 2063UNK    C0418563   6.601   4.364   7.231 -0.3137  0.3550  0.4577
 2063UNK    F0518564   6.514   4.376   7.330  0.6367  0.7103  0.3976
 2063UNK    F0618565   6.568   4.418   7.110  0.1113  0.4132 -0.0489
 2063UNK    F0718566   6.636   4.230   7.210  0.0066 -0.1680 -0.1126
 2063UNK    H0818567   6.742   4.525   7.193  0.4251  0.2686  1.0848
 2064UNK    F0018568  10.800   2.819   8.834  0.1603 -0.3677 -0.2468
 2064UNK    C0118569  10.691   2.753   8.800 -0.2801 -0.1920  0.1148
 2064UNK    H0218570  10.713   2.666   8.738 -0.1664 -0.9229  1.1748
 2064UNK    C0318571  10.577   2.820   8.805  0.4750 -0.0915 -0.0702
 2064UNK    C0418572  10.503   2.882   8.701 -0.3132 -0.0874 -0.0750
 2064UNK    F0518573  10.370   2.891   8.723 -0.2672 -0.4398 -0.5302
 2064UNK    F0618574  10.537   3.011   8.670 -0.3039 -0.0508 -0.2302
 2064UNK    F0718575  10.519   2.800   8.590 -0.2723 -0.4373 -0.2596
 2064UNK    H0818576  10.515   2.806   8.892  0.0798  1.6863 -0.0539
 2065UNK    F0018577   3.691   2.531   4.264  0.2798 -0.2010  0.0165
 2065UNK    C0118578   3.648   2.595   4.152 -0.0587  0.1652 -0.7365
 2065UNK    H0218579   3.539   2.599   4.151 -0.1011  0.6640  2.1363
 2065UNK    C0318580   3.732   2.653   4.066  0.3247 -0.3083 -0.2598
 2065UNK    C0418581   3.693   2.756   3.967 -0.1332  0.2212 -0.6721
 2065UNK    F0518582   3.781   2.806   3.882  0.2980  0.5883  0.6205
 2065UNK    F0618583   3.591   2.709   3.890  0.4178 -0.0416  0.9350
 2065UNK    F0718584   3.645   2.870   4.028  0.4076  0.0819 -0.0549
 2065UNK    H0818585   3.827   2.677   4.111  0.1846 -0.3689  0.0708
 2066UNK    F0018586  41.652   4.421  14.166  0.0721  0.0416 -0.7199
 2066UNK    C0118587  41.657   4.465  14.296 -1.3756 -0.1406  1.4207
 2066UNK    H0218588  41.592   4.419  14.371  2.3951 -4.5645  2.2286
 2066UNK    C0318589  41.777   4.485  14.355  0.1747  0.9851  0.1196
 2066UNK    C0418590  41.815   4.439  14.495 -1.0318  0.3515 -0.0879
 2066UNK    F0518591  41.839   4.314  14.501  0.8603  0.5808  1.1882
 2066UNK    F0618592  41.919   4.502  14.553 -0.1350 -0.1163 -0.3020
 2066UNK    F0718593  41.702   4.455  14.580  0.2912  0.2429 -1.1384
 2066UNK    H0818594  41.870   4.477  14.302 -0.2296 -4.2641 -0.0535
 2067UNK    F0018595   6.072   4.679   7.954 -0.3687 -0.3965  0.7362
 2067UNK    C0118596   6.033   4.573   7.890  0.8396  0.9663 -0.4923
 2067UNK    H0218597   5.925   4.565   7.883  0.8259  0.9695 -0.3132
 2067UNK    C0318598   6.113   4.472   7.872 -0.0637 -0.2049 -0.1532
 2067UNK    C0418599   6.128   4.400   7.743 -0.1782 -0.0972  0.1715
 2067UNK    F0518600   6.199   4.468   7.654 -0.0240 -0.1638  0.2853
 2067UNK    F0618601   6.202   4.293   7.773  0.2923  0.0689 -0.3380
 2067UNK    F0718602   6.010   4.349   7.697 -0.1208 -0.5130  0.0193
 2067UNK    H0818603   6.189   4.452   7.946  0.1487  0.1574 -0.2703
 2068UNK    F0018604  19.262   0.934  11.778  0.1411 -0.2536  0.4169
 2068UNK    C0118605  19.352   0.857  11.716  0.0439 -0.6634 -0.0914
 2068UNK    H0218606  19.382   0.770  11.774 -0.0987  1.3919  3.1663
 2068UNK    C0318607  19.340   0.859  11.588 -0.9082  0.1799 -0.1785
 2068UNK    C0418608  19.380   0.744  11.508  0.4547 -0.0555  0.8692
 2068UNK    F0518609  19.470   0.664  11.557 -0.7850 -0.4202  0.4388
 2068UNK    F0618610  19.270   0.669  11.487 -0.4045 -0.3288  0.2155
 2068UNK    F0718611  19.414   0.796  11.387  0.3532  0.0003  0.6853
 2068UNK    H0818612  19.271   0.927  11.541 -1.2463 -0.1817 -0.2080
 2069UNK    F0018613  28.190   4.896   2.348 -0.0547 -0.3446  0.5474
 2069UNK    C0118614  28.215   5.013   2.286 -0.7921 -0.1558  0.4027
 2069UNK    H0218615  28.173   5.011   2.186 -0.9565  0.2071  0.4641
 2069UNK    C0318616  28.238   5.116   2.364  0.8431  1.0340  0.1958
 2069UNK    C0418617  28.128   5.155   2.458  0.1272  0.0183  0.1613
 2069UNK    F0518618  28.139   5.287   2.486 -0.1516  0.0401 -0.2117
 2069UNK    F0618619  28.006   5.121   2.407 -0.5947  0.3792 -0.3381
 2069UNK    F0718620  28.144   5.094   2.582  0.5216 -0.0397  0.7206
 2069UNK    H0818621  28.335   5.141   2.405  1.0402  1.1832 -0.3682
 2070UNK    F0018622   8.015   0.871   3.880 -0.0180 -0.4639  0.5159
 2070UNK    C0118623   8.138   0.929   3.864 -0.1730 -0.4240  0.7863
 2070UNK    H0218624   8.220   0.857   3.854 -1.8161 -2.2069 -0.3225
 2070UNK    C0318625   8.146   1.063   3.851  0.7819 -0.1285  0.4942
 2070UNK    C0418626   8.263   1.133   3.795  0.3760  0.6983 -0.2127
 2070UNK    F0518627   8.270   1.257   3.856 -0.1650  0.2449  0.2275
 2070UNK    F0618628   8.383   1.069   3.811  0.1738 -0.5611 -0.8063
 2070UNK    F0718629   8.246   1.144   3.665  0.2203 -0.9539 -0.5437
 2070UNK    H0818630   8.061   1.124   3.880 -1.2535 -3.1270  1.1513
 2071UNK    F0018631  44.382   3.525   0.568  0.0376  0.1844  0.1303
 2071UNK    C0118632  44.426   3.589   0.666 -0.3056 -0.4222 -0.8230
 2071UNK    H0218633  44.345   3.611   0.736  1.0891 -2.7388  1.6284
 2071UNK    C0318634  44.542   3.660   0.645 -0.1039  0.2128 -0.5021
 2071UNK    C0418635  44.554   3.786   0.577  0.5463 -0.3637 -0.5290
 2071UNK    F0518636  44.680   3.815   0.539 -0.4623  0.4519 -0.3075
 2071UNK    F0618637  44.480   3.788   0.463 -0.4523  0.7485 -0.1456
 2071UNK    F0718638  44.504   3.886   0.648 -0.2496 -0.1849 -0.0992
 2071UNK    H0818639  44.613   3.653   0.726 -2.0842 -1.8626  1.0835
 2072UNK    F0018640   5.764   3.544   9.094 -0.1602  0.1649 -0.5301
 2072UNK    C0118641   5.888   3.573   9.138 -0.6299  0.0199  0.1205
 2072UNK    H0218642   5.958   3.619   9.069 -1.1703  0.8343  0.1017
 2072UNK    C0318643   5.911   3.523   9.261  0.1406 -0.0969 -0.7067
 2072UNK    C0418644   5.996   3.409   9.301 -0.0233 -0.7661 -0.5203
 2072UNK    F0518645   6.123   3.453   9.336 -0.0730 -0.0205 -0.0232
 2072UNK    F0618646   5.944   3.345   9.407  0.0925 -0.1761  0.3419
 2072UNK    F0718647   6.032   3.317   9.212  0.4128 -0.1131  0.0222
 2072UNK    H0818648   5.831   3.533   9.333  0.5679  0.1777 -0.2645
 2073UNK    F0018649  18.367   1.138   0.982  0.3434  0.4989 -0.6370
 2073UNK    C0118650  18.267   1.052   0.959  0.3717  0.2538  0.6683
 2073UNK    H0218651  18.176   1.110   0.941 -0.4525 -0.8699  1.1587
 2073UNK    C0318652  18.282   0.918   0.966  0.4451  0.0077 -0.0671
 2073UNK    C0418653  18.217   0.836   0.867  0.8760 -0.5955  0.0485
 2073UNK    F0518654  18.288   0.837   0.752 -0.9955  0.0746  0.1246
 2073UNK    F0618655  18.220   0.705   0.903 -0.2408  0.5333 -0.8800
 2073UNK    F0718656  18.090   0.865   0.845 -0.4307 -0.1684  0.7066
 2073UNK    H0818657  18.288   0.859   1.056 -0.4737 -1.2215 -0.7993
 2074UNK    F0018658  40.958   1.099  10.996  0.4183  0.3430 -0.1530
 2074UNK    C0118659  41.079   1.086  11.046 -0.3356  0.3727 -0.6810
 2074UNK    H0218660  41.089   1.083  11.154 -0.4743 -0.8541 -0.6935
 2074UNK    C0318661  41.183   1.103  10.964 -0.0413  0.2400 -0.5199
 2074UNK    C0418662  41.232   1.239  10.939  0.3898 -0.3829 -0.3390
 2074UNK    F0518663  41.296   1.235  10.825 -0.1022  0.2349  0.1384
 2074UNK    F0618664  41.128   1.326  10.929 -0.1872  0.1883 -0.2802
 2074UNK    F0718665  41.297   1.277  11.049 -0.7025  0.5967  0.0799
 2074UNK    H0818666  41.161   1.048  10.873 -1.2602 -0.0055 -0.0917
 2075UNK    F0018667  48.752   3.844  13.824 -0.2098  0.3029 -0.1354
 2075UNK    C0118668  48.694   3.771  13.916  0.2481 -0.3319 -0.0258
 2075UNK    H0218669  48.713   3.822  14.010  1.2193  1.7495 -1.3221
 2075UNK    C0318670  48.588   3.708  13.870 -0.2071  0.9831  0.3777
 2075UNK    C0418671  48.596   3.561  13.879  0.7827 -0.4332  0.0142
 2075UNK    F0518672  48.593   3.504  14.004  0.2324  0.4148  0.2522
 2075UNK    F0618673  48.486   3.507  13.818 -0.2009  0.3151 -0.1206
 2075UNK    F0718674  48.695   3.514  13.797 -0.5713  0.0731 -0.0925
 2075UNK    H0818675  48.536   3.754  13.788 -0.0782  0.5177  0.0308
 2076UNK    F0018676  49.938   4.377  13.741  0.5877 -0.1263  0.0640
 2076UNK    C0118677  49.894   4.395  13.865 -0.4002 -1.4999 -0.3227
 2076UNK    H0218678  49.787   4.400  13.881 -0.6010  3.9189 -2.2883
 2076UNK    C0318679  49.973   4.385  13.960 -0.8949  0.7251 -0.1992
 2076UNK    C0418680  50.088   4.285  13.932  0.3206  0.0984  0.6895
 2076UNK    F0518681  50.168   4.247  14.037  0.0987 -0.2683 -0.0440
 2076UNK    F0618682  50.033   4.174  13.874 -0.6222  0.5349  0.0073
 2076UNK    F0718683  50.180   4.348  13.849  0.5955  0.2837  0.2485
 2076UNK    H0818684  50.007   4.478  14.004  0.7452 -0.1997  0.5094
 2077UNK    F0018685   9.461   2.386   1.112  0.2689 -0.0062  0.5688
 2077UNK    C0118686   9.340   2.334   1.128  0.2275  0.4745 -0.2342
 2077UNK    H0218687   9.338   2.323   1.237 -2.4997  0.1802 -0.2773
 2077UNK    C0318688   9.285   2.246   1.042 -0.6414  0.9793  0.0727
 2077UNK    C0418689   9.334   2.105   1.034  0.0168  0.0978  0.4160
 2077UNK    F0518690   9.462   2.086   1.061  0.0256 -0.6495  0.0449
 2077UNK    F0618691   9.260   2.019   1.112 -0.8116  0.8193 -0.2683
 2077UNK    F0718692   9.302   2.059   0.906 -0.1795 -0.3523  0.2143
 2077UNK    H0818693   9.233   2.279   0.953 -0.4439  1.4323  0.1250
 2078UNK    F0018694  38.400   1.640   4.650 -0.1638 -0.3228  0.4481
 2078UNK    C0118695  38.310   1.664   4.745 -0.9579  0.0285  0.0167
 2078UNK    H0218696  38.234   1.732   4.708 -0.1819  0.8373 -0.0929
 2078UNK    C0318697  38.312   1.591   4.858  0.0847 -0.0963  0.1290
 2078UNK    C0418698  38.329   1.661   4.985  1.0757 -1.1522 -0.3079
 2078UNK    F0518699  38.372   1.579   5.082 -0.2591 -0.1758 -0.0743
 2078UNK    F0618700  38.409   1.766   4.962  0.4231 -0.0007  0.1246
 2078UNK    F0718701  38.202   1.699   5.002  0.0043  0.1587  0.0713
 2078UNK    H0818702  38.352   1.491   4.867 -1.0004 -0.4776  0.8215
 2079UNK    F0018703  31.905   1.930   5.818  0.5242 -0.5533  0.4954
 2079UNK    C0118704  31.930   1.830   5.736  0.7125  0.4986 -0.6918
 2079UNK    H0218705  31.893   1.841   5.635  0.4783 -1.5733 -0.8578
 2079UNK    C0318706  31.961   1.719   5.797 -1.1178 -0.1035  0.6735
 2079UNK    C0418707  31.915   1.672   5.931  0.7214 -1.1087 -0.2973
 2079UNK    F0518708  31.779   1.667   5.937  0.6229 -0.2603  0.1616
 2079UNK    F0618709  31.978   1.548   5.960 -0.5488 -0.2127 -0.1465
 2079UNK    F0718710  31.973   1.761   6.019 -0.2089 -0.5444 -0.1907
 2079UNK    H0818711  32.017   1.643   5.745  2.8683  2.9565  0.3097
 2080UNK    F0018712   2.506   2.037   9.845 -0.1888  0.0264 -0.0794
 2080UNK    C0118713   2.591   1.951   9.785 -0.1103  0.0617  0.4635
 2080UNK    H0218714   2.541   1.875   9.725 -1.2901  0.7969  0.5088
 2080UNK    C0318715   2.722   1.965   9.812 -0.3446  0.3333  0.0539
 2080UNK    C0418716   2.817   1.945   9.702 -0.0502 -0.2171 -0.5790
 2080UNK    F0518717   2.944   1.928   9.752 -0.2105 -0.4785  0.0215
 2080UNK    F0618718   2.786   1.832   9.639  0.1308  0.1066  0.7461
 2080UNK    F0718719   2.821   2.054   9.626 -0.7506 -0.0990 -0.1046
 2080UNK    H0818720   2.755   2.009   9.905 -0.8015  1.3722 -0.2684
 2081UNK    F0018721  51.760   3.000   0.896  0.0047  0.1476  0.4739
 2081UNK    C0118722  51.766   2.927   0.787  0.1991 -0.7214 -0.4721
 2081UNK    H0218723  51.677   2.864   0.791  0.4768 -0.9644  4.3014
 2081UNK    C0318724  51.829   2.973   0.682 -0.2748  0.5349  0.2871
 2081UNK    C0418725  51.813   3.106   0.624  0.3999 -0.5295 -0.2815
 2081UNK    F0518726  51.696   3.109   0.559 -0.3465 -0.2357 -0.2237
 2081UNK    F0618727  51.817   3.206   0.713 -0.2865 -0.4092 -0.7499
 2081UNK    F0718728  51.924   3.136   0.547  0.0994  0.2473 -0.3609
 2081UNK    H0818729  51.897   2.915   0.622  0.5671 -1.4564  3.0432
 2082UNK    F0018730  29.834   4.778   6.115  0.2296  0.2577  0.0724
 2082UNK    C0118731  29.777   4.695   6.030  0.7753  0.0953  0.8037
 2082UNK    H0218732  29.704   4.635   6.084 -1.3673  0.0720 -2.0135
 2082UNK    C0318733  29.782   4.713   5.897  0.1400  0.0672  0.1324
 2082UNK    C0418734  29.716   4.832   5.837 -0.3527 -0.4043  0.1830
 2082UNK    F0518735  29.579   4.830   5.857  0.6746 -0.2081  0.3295
 2082UNK    F0618736  29.771   4.946   5.887 -0.4119 -0.3527 -0.1842
 2082UNK    F0718737  29.754   4.834   5.704  0.0845  0.3135  0.4584
 2082UNK    H0818738  29.862   4.675   5.834  1.0617  0.6196  0.9483
 2083UNK    F0018739  48.842   0.502   6.136 -0.3992 -0.1495 -0.6054
 2083UNK    C0118740  48.971   0.468   6.157 -0.7810 -0.4845  0.3804
 2083UNK    H0218741  48.958   0.382   6.222 -0.3776 -0.5270  0.4080
 2083UNK    C0318742  49.067   0.564   6.178 -0.0624 -0.2720 -0.8528
 2083UNK    C0418743  49.107   0.627   6.300 -0.2077  0.3095  0.0588
 2083UNK    F0518744  49.012   0.691   6.368 -0.2981 -0.3127 -0.5509
 2083UNK    F0618745  49.171   0.546   6.393  0.6286 -0.0031  0.7510
 2083UNK    F0718746  49.217   0.705   6.272  0.0046  0.1075  0.4375
 2083UNK    H0818747  49.108   0.611   6.090  2.8610 -1.1882 -0.0517
 2084UNK    F0018748  28.216   2.445   5.648 -0.7353 -0.0923  0.0483
 2084UNK    C0118749  28.180   2.456   5.519  0.6897  0.3478  0.1935
 2084UNK    H0218750  28.218   2.547   5.473 -0.5735  0.8915  0.2241
 2084UNK    C0318751  28.089   2.366   5.484  0.2322 -0.4760 -0.3348
 2084UNK    C0418752  28.067   2.325   5.339  0.0062  0.4476 -0.2137
 2084UNK    F0518753  27.937   2.277   5.328  0.8931  0.0004  0.3705
 2084UNK    F0618754  28.077   2.434   5.252  0.5079 -0.3122  0.1408
 2084UNK    F0718755  28.156   2.232   5.280  0.3702 -0.2330 -0.0613
 2084UNK    H0818756  28.006   2.340   5.547 -1.9109  0.9624 -2.4576
 2085UNK    F0018757  12.981   3.307   8.928  0.0635 -0.2735  0.4007
 2085UNK    C0118758  12.957   3.252   9.046 -0.4159  0.4763  0.0055
 2085UNK    H0218759  12.983   3.317   9.129 -0.1929  0.3201  0.0585
 2085UNK    C0318760  12.883   3.140   9.047  0.4110  0.2969  0.2505
 2085UNK    C0418761  12.965   3.018   9.069  0.4923  0.2464  0.5208
 2085UNK    F0518762  13.094   3.025   9.034  0.1952 -0.2581 -1.1774
 2085UNK    F0618763  12.956   2.973   9.202  0.3429 -0.2494  0.8940
 2085UNK    F0718764  12.906   2.913   9.001 -0.2679  0.1421  0.1179
 2085UNK    H0818765  12.813   3.122   8.966 -0.1355  1.0109  0.5542
 2086UNK    F0018766  42.225   4.012   8.344 -0.1195  0.2655  0.1831
 2086UNK    C0118767  42.196   3.904   8.420 -0.6728 -1.0882 -0.6110
 2086UNK    H0218768  42.213   3.930   8.525  1.8169 -1.7980 -0.8224
 2086UNK    C0318769  42.100   3.828   8.389  0.2781  0.2819 -0.6706
 2086UNK    C0418770  42.042   3.724   8.478  0.1446 -0.3159 -0.5119
 2086UNK    F0518771  41.943   3.783   8.552  0.5064 -0.0515 -0.1609
 2086UNK    F0618772  41.980   3.634   8.399 -0.3045  0.1359  0.0817
 2086UNK    F0718773  42.132   3.663   8.560 -0.4099 -0.4598  0.0080
 2086UNK    H0818774  42.025   3.877   8.328  0.1686 -0.1903 -0.9173
 2087UNK    F0018775  40.131   3.222  12.167 -0.0852 -0.4087  0.5409
 2087UNK    C0118776  40.105   3.340  12.221 -0.0245  0.0730 -0.0758
 2087UNK    H0218777  40.171   3.418  12.181 -1.7529  0.8295 -1.5007
 2087UNK    C0318778  40.056   3.334  12.345 -0.7056 -0.5323 -0.0293
 2087UNK    C0418779  40.147   3.335  12.462 -0.2298 -0.0473  0.8526
 2087UNK    F0518780  40.080   3.323  12.581  0.0113  0.4327 -0.4749
 2087UNK    F0618781  40.234   3.229  12.460 -0.3246  0.0225 -0.0251
 2087UNK    F0718782  40.223   3.453  12.469  0.4010  0.3869  0.0119
 2087UNK    H0818783  39.958   3.291  12.350 -1.9952  2.3698  1.3004
 2088UNK    F0018784  42.279   3.374   3.576  0.5721  0.0956  0.0572
 2088UNK    C0118785  42.301   3.249   3.561 -0.1361  1.0973 -0.0342
 2088UNK    H0218786  42.257   3.238   3.462 -1.8270 -2.5285  1.0273
 2088UNK    C0318787  42.421   3.198   3.596 -0.5281  0.3576 -0.1269
 2088UNK    C0418788  42.421   3.059   3.655  1.5001  0.0822 -0.4581
 2088UNK    F0518789  42.547   3.027   3.695  0.2173  0.1250  0.2020
 2088UNK    F0618790  42.350   3.065   3.776 -0.1826  0.5015 -0.0101
 2088UNK    F0718791  42.357   2.978   3.572 -0.7018  0.1128 -0.1413
 2088UNK    H0818792  42.509   3.225   3.540  3.3903 -1.2810  4.8977
 2089UNK    F0018793  26.815   2.726   0.055 -0.1591  0.2451  0.1604
 2089UNK    C0118794  26.905   2.672   0.140 -0.7522 -0.1041 -0.4895
 2089UNK    H0218795  26.899   2.563   0.137 -2.6656 -0.0297  0.1866
 2089UNK    C0318796  26.987   2.744   0.211  1.2180  0.0144 -0.1859
 2089UNK    C0418797  27.102   2.686   0.276  0.2838  0.3845 -0.2981
 2089UNK    F0518798  27.115   2.749   0.395 -0.7679  0.3289 -0.5791
 2089UNK    F0618799  27.098   2.553   0.284 -0.2489 -0.1130 -0.2418
 2089UNK    F0718800  27.201   2.709   0.194 -0.1058  0.2512  0.2375
 2089UNK    H0818801  26.942   2.821   0.272  0.7726 -0.6513  0.3356
 2090UNK    F0018802  29.987   3.791   6.419 -0.3457  0.2772 -0.4764
 2090UNK    C0118803  29.935   3.820   6.536 -0.4262 -0.5482  0.1861
 2090UNK    H0218804  29.828   3.836   6.536 -0.9694 -3.7768  1.7111
 2090UNK    C0318805  30.010   3.824   6.644 -0.4313 -0.1813 -0.4062
 2090UNK    C0418806  29.951   3.792   6.774  0.4692 -0.5010 -0.6215
 2090UNK    F0518807  30.037   3.825   6.875  0.3233  0.2770  0.0374
 2090UNK    F0618808  29.834   3.856   6.790 -0.4298 -0.4232  0.4944
 2090UNK    F0718809  29.932   3.653   6.787 -0.1333 -0.1960 -0.4864
 2090UNK    H0818810  30.084   3.903   6.646  0.0586 -0.6501  0.2607
 2091UNK    F0018811  11.112   2.255   3.793  0.5187  0.1280 -0.1015
 2091UNK    C0118812  11.179   2.185   3.884 -0.1195  0.2102 -0.0007
 2091UNK    H0218813  11.269   2.139   3.843  0.3245  0.3240  0.8315
 2091UNK    C0318814  11.109   2.149   3.993  0.5607  0.4249 -0.4064
 2091UNK    C0418815  11.040   2.017   3.998  0.7080  0.4023 -0.9036
 2091UNK    F0518816  11.003   1.968   3.875  0.0337  0.1238 -0.2955
 2091UNK    F0618817  11.116   1.915   4.048 -0.2409 -0.2602  0.6086
 2091UNK    F0718818  10.934   2.015   4.077 -0.0473  0.3310 -0.1048
 2091UNK    H0818819  11.059   2.236   4.033  2.3126  1.2066  0.1703
 2092UNK    F0018820  29.430   4.211   3.596  0.0550 -0.1909 -0.2120
 2092UNK    C0118821  29.313   4.253   3.544  0.1499  0.9170 -0.1079
 2092UNK    H0218822  29.313   4.350   3.494 -0.3858  1.6262  1.2593
 2092UNK    C0318823  29.201   4.179   3.551 -0.0410  0.5547 -0.2764
 2092UNK    C0418824  29.086   4.211   3.460 -0.3772  0.5801 -0.0085
 2092UNK    F0518825  28.963   4.168   3.499 -0.4655  0.2366 -0.0647
 2092UNK    F0618826  29.066   4.341   3.434 -0.2066 -0.1662  0.0586
 2092UNK    F0718827  29.109   4.163   3.337 -0.6417  0.2831 -0.2765
 2092UNK    H0818828  29.168   4.157   3.651  0.7253  1.2338  0.1319
 2093UNK    F0018829   0.678   3.290  13.516  0.1861  0.2346 -0.2841
 2093UNK    C0118830   0.572   3.329  13.593  0.1865  0.1734  0.8414
 2093UNK    H0218831   0.487   3.312  13.527 -0.2158 -2.4931  1.9855
 2093UNK    C0318832   0.574   3.304  13.721 -0.4298 -0.0706 -0.5514
 2093UNK    C0418833   0.467   3.253  13.804  0.4079  0.3752  0.0690
 2093UNK    F0518834   0.447   3.120  13.775  0.3427  0.4586  0.3445
 2093UNK    F0618835   0.493   3.243  13.938  0.3114 -0.5488 -0.1277
 2093UNK    F0718836   0.351   3.317  13.793  0.5013  0.2349 -0.2038
 2093UNK    H0818837   0.662   3.330  13.778  1.1575 -3.6772 -1.2289
 2094UNK    F0018838  52.302   3.055  13.356  0.3977  0.5593 -0.0107
 2094UNK    C0118839  52.373   2.980  13.440 -0.0826  0.6434  0.8095
 2094UNK    H0218840  52.427   2.904  13.382  0.0199  1.4512 -0.1673
 2094UNK    C0318841  52.354   2.991  13.570 -0.0645  0.0947 -0.0863
 2094UNK    C0418842  52.460   2.955  13.670  0.6501 -0.3737  0.4639
 2094UNK    F0518843  52.412   2.916  13.793 -0.0630 -0.7681  0.2450
 2094UNK    F0618844  52.527   2.845  13.616  0.6430 -0.1572 -0.1140
 2094UNK    F0718845  52.537   3.062  13.690 -0.2907  0.6821  0.5229
 2094UNK    H0818846  52.254   3.010  13.605  0.2621 -1.6806  1.8782
 2095UNK    F0018847  36.918   1.582   1.689 -0.4248  0.7306  0.3381
 2095UNK    C0118848  36.984   1.594   1.575 -0.4018 -1.1575  0.3016
 2095UNK    H0218849  37.040   1.687   1.568 -2.4853  0.0294 -1.0017
 2095UNK    C0318850  36.997   1.479   1.513  0.3450  0.0563  0.7666
 2095UNK    C0418851  37.079   1.473   1.392 -0.1226 -0.4371  0.7213
 2095UNK    F0518852  37.214   1.501   1.404  0.1094  0.0682 -0.1795
 2095UNK    F0618853  37.054   1.360   1.322 -0.1593 -0.1747 -0.7980
 2095UNK    F0718854  37.044   1.563   1.304  0.5247 -0.9851 -0.5958
 2095UNK    H0818855  36.914   1.413   1.493 -0.7933  1.9494 -0.9199
 2096UNK    F0018856  13.751   0.278   8.628 -0.2560 -0.1417  0.1829
 2096UNK    C0118857  13.712   0.150   8.602 -0.5138 -0.0478 -0.4150
 2096UNK    H0218858  13.604   0.139   8.593 -0.3264  0.0422 -3.1516
 2096UNK    C0318859  13.799   0.044   8.630  0.5757 -1.2293  0.3085
 2096UNK    C0418860  13.758  -0.087   8.586 -0.1271  0.1159 -0.2780
 2096UNK    F0518861  13.790  -0.101   8.457  0.0696  0.2685 -0.3358
 2096UNK    F0618862  13.828  -0.187   8.647 -0.2394  0.9581 -0.2174
 2096UNK    F0718863  13.623  -0.096   8.609  0.1249 -0.0795 -0.0631
 2096UNK    H0818864  13.905   0.054   8.613  0.5855  1.6190  1.8289
 2097UNK    F0018865  47.162   1.666  13.497 -0.0318  0.3025 -0.1442
 2097UNK    C0118866  47.138   1.788  13.547 -0.1770 -0.0400 -0.0232
 2097UNK    H0218867  47.057   1.795  13.620  0.3443 -0.5489  0.6066
 2097UNK    C0318868  47.206   1.888  13.496 -0.9258 -0.4088 -0.0767
 2097UNK    C0418869  47.194   2.027  13.540 -0.1240 -0.0945  0.0380
 2097UNK    F0518870  47.216   2.107  13.432 -0.4307 -0.1323  0.2798
 2097UNK    F0618871  47.070   2.065  13.580  0.0376 -0.5712  0.0443
 2097UNK    F0718872  47.279   2.050  13.642 -0.1833  0.5735 -1.1594
 2097UNK    H0818873  47.306   1.863  13.466 -0.2785  1.4833  0.4341
 2098UNK    F0018874  15.005   4.264  14.145  0.2041  0.6214  0.3705
 2098UNK    C0118875  15.099   4.209  14.065  0.2367 -0.4022 -0.3735
 2098UNK    H0218876  15.134   4.115  14.109  1.6924  0.3472  0.0762
 2098UNK    C0318877  15.146   4.277  13.967 -0.4271  0.1124 -0.0851
 2098UNK    C0418878  15.278   4.349  13.980 -0.4237 -0.5918 -0.1087
 2098UNK    F0518879  15.382   4.269  13.980 -0.4295 -0.0663  0.4517
 2098UNK    F0618880  15.281   4.414  13.860  0.3441  0.1055  0.1548
 2098UNK    F0718881  15.284   4.442  14.075 -0.0521 -0.2794 -0.4742
 2098UNK    H0818882  15.074   4.340  13.917  0.4132  0.3013 -1.0742
 2099UNK    F0018883  40.920   4.075   9.292 -0.7765  0.1725 -0.3245
 2099UNK    C0118884  40.819   4.109   9.376  0.3251 -0.5687  0.1357
 2099UNK    H0218885  40.846   4.072   9.475 -3.6691  1.4046  2.1055
 2099UNK    C0318886  40.770   4.238   9.355 -0.8043  0.5305  0.2032
 2099UNK    C0418887  40.677   4.283   9.245  0.4811  1.1618  0.1180
 2099UNK    F0518888  40.608   4.165   9.223  0.3708 -0.0824  0.4473
 2099UNK    F0618889  40.583   4.382   9.264  0.8349 -1.0164  0.9634
 2099UNK    F0718890  40.735   4.303   9.123  0.0669  0.1746 -0.1588
 2099UNK    H0818891  40.857   4.302   9.363 -1.8270  1.5557  4.1035
 2100UNK    F0018892  13.284   3.365   9.092 -0.0515  0.0473 -0.2953
 2100UNK    C0118893  13.317   3.342   9.221  0.1316  0.7340  0.0683
 2100UNK    H0218894  13.232   3.306   9.279 -0.6177  1.7479 -0.4014
 2100UNK    C0318895  13.430   3.396   9.271 -0.1676 -0.1381 -0.4279
 2100UNK    C0418896  13.471   3.388   9.414  0.2851 -0.3758 -0.6493
 2100UNK    F0518897  13.543   3.280   9.436 -0.0130  0.2725  0.3605
 2100UNK    F0618898  13.534   3.503   9.446  0.4294  0.1282 -0.1037
 2100UNK    F0718899  13.351   3.382   9.480  0.1796 -0.0917  0.3284
 2100UNK    H0818900  13.505   3.443   9.210 -0.7262  0.6950 -0.4815
 2101UNK    F0018901  33.323   5.225   1.229  0.3410  0.3899 -0.0710
 2101UNK    C0118902  33.374   5.330   1.291  0.2393 -0.3290 -0.5865
 2101UNK    H0218903  33.351   5.426   1.246  2.8112  0.4244 -0.3789
 2101UNK    C0318904  33.436   5.301   1.409 -0.4516  0.2294  0.1227
 2101UNK    C0418905  33.489   5.401   1.499 -0.0736 -0.1548 -0.3093
 2101UNK    F0518906  33.579   5.343   1.585  0.2501 -0.2421 -0.0272
 2101UNK    F0618907  33.542   5.503   1.424  0.4852 -0.1822 -0.3275
 2101UNK    F0718908  33.385   5.447   1.575 -0.4711  0.5133 -0.1300
 2101UNK    H0818909  33.381   5.228   1.466 -1.4179  2.0225  1.5485
 2102UNK    F0018910  13.423   4.978  10.650 -0.4782 -0.4552 -0.2917
 2102UNK    C0118911  13.522   4.962  10.562 -1.0460 -0.5460  0.3028
 2102UNK    H0218912  13.610   4.927  10.616  0.1670  2.5370  0.4582
 2102UNK    C0318913  13.506   4.991  10.431 -0.1329 -0.9410 -0.9466
 2102UNK    C0418914  13.582   4.932  10.319  0.4297  0.2363 -0.0740
 2102UNK    F0518915  13.703   4.987  10.308  0.5672  0.3535 -0.1862
 2102UNK    F0618916  13.613   4.795  10.335  0.2247 -0.3632  0.4021
 2102UNK    F0718917  13.507   4.956  10.211  0.1609 -0.0613 -0.3330
 2102UNK    H0818918  13.431   5.058  10.392  1.9601  1.8181 -0.3873
 2103UNK    F0018919  16.884   4.660   5.904  0.3150 -0.2255  0.2095
 2103UNK    C0118920  16.984   4.732   5.836 -0.7411 -0.3300 -0.0536
 2103UNK    H0218921  17.075   4.734   5.896 -1.7583 -0.2893  1.5143
 2103UNK    C0318922  16.967   4.776   5.713  0.0878 -0.1645  0.5073
 2103UNK    C0418923  17.082   4.820   5.632 -0.1874  1.0577  0.4201
 2103UNK    F0518924  17.186   4.858   5.711 -0.0429  0.6886 -0.0322
 2103UNK    F0618925  17.132   4.721   5.552 -0.2581  0.0075 -0.2362
 2103UNK    F0718926  17.049   4.913   5.540 -0.0640 -0.2723  0.0493
 2103UNK    H0818927  16.869   4.805   5.677  0.8511  2.1149  0.2503
 2104UNK    F0018928   9.295   3.744   4.165  0.0742  0.4125  0.7926
 2104UNK    C0118929   9.279   3.652   4.250 -0.1472 -0.4208 -0.0509
 2104UNK    H0218930   9.186   3.596   4.240  0.8853 -1.7986 -2.3605
 2104UNK    C0318931   9.366   3.642   4.353 -0.4970  0.5396 -0.1935
 2104UNK    C0418932   9.369   3.534   4.452 -0.1415 -0.4443 -0.3347
 2104UNK    F0518933   9.416   3.582   4.569  0.0936 -0.6725  0.1267
 2104UNK    F0618934   9.249   3.472   4.454  0.5952 -0.2455 -0.0367
 2104UNK    F0718935   9.474   3.457   4.406  0.4009 -0.9647  0.0905
 2104UNK    H0818936   9.458   3.699   4.352 -0.6135  0.7756  1.0493
 2105UNK    F0018937  16.966   1.668   3.133  0.3082 -0.0086 -0.5233
 2105UNK    C0118938  16.922   1.589   3.228  0.2118  0.1515  0.1919
 2105UNK    H0218939  17.002   1.543   3.285  1.0560  0.9641 -0.3180
 2105UNK    C0318940  16.794   1.593   3.255  0.0047 -0.6767 -0.3370
 2105UNK    C0418941  16.732   1.584   3.391 -0.2663  0.4605  0.4999
 2105UNK    F0518942  16.602   1.566   3.385 -0.5145  0.2676 -0.0404
 2105UNK    F0618943  16.789   1.484   3.459 -0.1572 -0.2351 -0.0587
 2105UNK    F0718944  16.761   1.696   3.459  0.0135  0.7118 -0.0420
 2105UNK    H0818945  16.726   1.644   3.188  0.2442 -1.8407 -1.4804
 2106UNK    F0018946   6.461   3.695   7.157  0.3912 -0.1632 -0.2120
 2106UNK    C0118947   6.530   3.599   7.222  0.1764  0.0387  0.4893
 2106UNK    H0218948   6.637   3.620   7.223  0.1409  0.2485 -0.0143
 2106UNK    C0318949   6.469   3.487   7.249 -0.1254  0.2761 -0.0295
 2106UNK    C0418950   6.516   3.385   7.344 -0.1317  0.9434 -0.7138
 2106UNK    F0518951   6.463   3.260   7.310  0.0509 -0.1418 -0.4762
 2106UNK    F0618952   6.651   3.375   7.341 -0.0113 -0.0309 -0.1307
 2106UNK    F0718953   6.481   3.419   7.471  0.3745 -0.0984 -0.3785
 2106UNK    H0818954   6.364   3.484   7.223  0.0140  1.1209 -0.7272
 2107UNK    F0018955   5.382   0.172   2.083 -0.1234 -0.1743  0.2689
 2107UNK    C0118956   5.369   0.055   2.024  0.7284 -0.8377 -0.4986
 2107UNK    H0218957   5.401  -0.028   2.088 -1.9382 -1.3125  0.2761
 2107UNK    C0318958   5.368   0.066   1.890  0.0252  0.0329 -0.4669
 2107UNK    C0418959   5.319  -0.043   1.797 -0.2898  0.1219 -0.7516
 2107UNK    F0518960   5.181  -0.055   1.806  0.3010 -0.5615  0.0393
 2107UNK    F0618961   5.366  -0.020   1.672  0.5202 -0.5478 -0.4754
 2107UNK    F0718962   5.368  -0.166   1.828 -0.9166 -0.1941 -0.0104
 2107UNK    H0818963   5.441   0.135   1.848 -0.2678  0.1452 -0.7974
 2108UNK    F0018964  23.861   3.799   3.971 -0.1079 -0.2809  0.0717
 2108UNK    C0118965  23.924   3.857   3.863  0.0083  0.9997  0.3722
 2108UNK    H0218966  23.930   3.801   3.770  0.8274 -0.9191  1.5465
 2108UNK    C0318967  23.957   3.987   3.876 -0.4581  0.3642  0.4843
 2108UNK    C0418968  24.073   4.033   3.955 -0.3428 -0.3117  0.1900
 2108UNK    F0518969  24.054   4.160   3.990 -0.2425  0.4121 -0.2612
 2108UNK    F0618970  24.089   3.961   4.065  0.5063  0.1306 -0.1657
 2108UNK    F0718971  24.194   4.044   3.890  0.1123  0.2134  0.7393
 2108UNK    H0818972  23.882   4.064   3.864 -3.4968 -2.1107  2.7830
 2109UNK    F0018973  52.402   0.357   9.383 -0.2193  0.1789  0.0306
 2109UNK    C0118974  52.468   0.410   9.484 -0.1275  0.6077  0.0691
 2109UNK    H0218975  52.556   0.347   9.492 -1.1711 -0.6450  2.2740
 2109UNK    C0318976  52.398   0.432   9.590 -0.1230  0.1213 -0.9913
 2109UNK    C0418977  52.452   0.495   9.712  0.1546 -0.0257 -0.1439
 2109UNK    F0518978  52.423   0.422   9.821  0.1220  0.3473  0.2364
 2109UNK    F0618979  52.585   0.518   9.712  0.1402  0.3717 -0.8914
 2109UNK    F0718980  52.389   0.613   9.722 -0.0207 -0.1042 -0.6219
 2109UNK    H0818981  52.306   0.380   9.612  0.8220 -0.3390  2.0209
 2110UNK    F0018982  12.570   3.803   7.137 -0.6922  0.6432 -0.1381
 2110UNK    C0118983  12.694   3.756   7.134  0.2719  0.8230 -0.5008
 2110UNK    H0218984  12.719   3.709   7.229  1.2271  1.1525 -0.5875
 2110UNK    C0318985  12.778   3.839   7.073  0.5958  0.2575  0.0146
 2110UNK    C0418986  12.903   3.792   7.007  0.0561 -0.3911 -0.5657
 2110UNK    F0518987  12.979   3.712   7.087  0.0285  0.5179  0.2150
 2110UNK    F0618988  12.871   3.728   6.895  0.8312  0.0022  0.4311
 2110UNK    F0718989  12.972   3.904   6.977  0.3758  0.5276  0.1780
 2110UNK    H0818990  12.753   3.938   7.036 -0.7369 -1.2768 -3.4053
 2111UNK    F0018991  10.850   3.553   2.552  0.2361 -0.1098  0.4450
 2111UNK    C0118992  10.973   3.544   2.602 -0.1637 -0.0720 -0.1671
 2111UNK    H0218993  11.012   3.645   2.588 -1.1507  0.0705 -1.9877
 2111UNK    C0318994  11.052   3.434   2.587 -0.4196 -0.4051  0.4010
 2111UNK    C0418995  11.117   3.412   2.458 -0.1349  0.3295 -0.9313
 2111UNK    F0518996  11.027   3.380   2.363 -0.0173 -0.3074  0.0982
 2111UNK    F0618997  11.197   3.514   2.438 -0.0210 -0.0510 -0.1977
 2111UNK    F0718998  11.208   3.304   2.474 -0.3075 -0.2992  0.2442
 2111UNK    H0818999  11.021   3.341   2.633  0.2215  0.6793  3.1097
 2112UNK    F0019000  38.118   4.813  11.792 -0.3284  0.6347 -0.4193
 2112UNK    C0119001  38.026   4.797  11.892  0.7192  0.1079  0.1485
 2112UNK    H0219002  37.931   4.765  11.849 -0.1519  1.0303  1.3350
 2112UNK    C0319003  38.058   4.828  12.020  0.2930  0.7470 -0.4889
 2112UNK    C0419004  37.988   4.788  12.139 -0.2665  0.5947  0.2116
 2112UNK    F0519005  38.001   4.886  12.236  0.2833 -0.5477  0.4885
 2112UNK    F0619006  37.853   4.772  12.127 -0.2217 -0.1216  0.0585
 2112UNK    F0719007  38.031   4.665  12.187 -0.2749  0.1829  0.1939
 2112UNK    H0819008  38.163   4.849  12.035  0.4107  0.3843 -0.7808
 2113UNK    F0019009  38.304   4.552  12.934  0.2925 -0.1885 -0.0949
 2113UNK    C0119010  38.174   4.526  12.955  0.2129 -0.1444  0.2252
 2113UNK    H0219011  38.142   4.556  13.054 -3.8115 -2.1521 -0.3340
 2113UNK    C0319012  38.095   4.496  12.849  0.0063  0.1567 -0.1618
 2113UNK    C0419013  37.947   4.493  12.868 -0.9420 -0.4049  0.1881
 2113UNK    F0519014  37.892   4.399  12.790  0.3333 -0.3420  0.0146
 2113UNK    F0619015  37.915   4.467  13.001  0.2142  0.3037  0.3132
 2113UNK    F0719016  37.892   4.616  12.849 -0.0016 -0.0892 -0.2403
 2113UNK    H0819017  38.131   4.534  12.754  1.2874  0.8145  0.5753
 2114UNK    F0019018  32.323   2.568   1.542  0.2184 -0.4043 -0.6279
 2114UNK    C0119019  32.434   2.499   1.565 -0.5812 -0.2061  0.1385
 2114UNK    H0219020  32.511   2.574   1.584  0.4837 -1.1263 -0.5083
 2114UNK    C0319021  32.450   2.368   1.565  0.3436 -0.8118  0.1086
 2114UNK    C0419022  32.532   2.287   1.657  0.4581  0.9034 -0.2807
 2114UNK    F0519023  32.649   2.361   1.653 -0.8730 -0.0636  0.1335
 2114UNK    F0619024  32.473   2.260   1.774 -0.0534 -0.5640 -0.4057
 2114UNK    F0719025  32.552   2.167   1.601 -0.1989 -0.0041 -0.4911
 2114UNK    H0819026  32.394   2.308   1.495 -0.8970  0.6563 -0.1926
 2115UNK    F0019027  13.241   4.866   3.676  0.1265 -0.3804  0.1585
 2115UNK    C0119028  13.191   4.769   3.754  0.5809  0.6601  0.1061
 2115UNK    H0219029  13.249   4.759   3.846 -1.4380 -1.9472  1.1630
 2115UNK    C0319030  13.058   4.741   3.761  0.1534 -0.1819  0.5212
 2115UNK    C0419031  12.987   4.673   3.873 -0.0861  0.1737 -0.3699
 2115UNK    F0519032  12.994   4.744   3.985  0.1962  0.3178  0.1585
 2115UNK    F0619033  12.860   4.656   3.837 -0.2727 -0.1201 -0.1880
 2115UNK    F0719034  13.043   4.552   3.878  0.2386 -0.3651  0.6394
 2115UNK    H0819035  13.007   4.704   3.673 -0.2988 -0.3506  0.8468
 2116UNK    F0019036  28.999   2.623   5.062  0.3828  0.2514 -0.0846
 2116UNK    C0119037  28.933   2.709   5.144 -0.0857 -0.1343 -0.2700
 2116UNK    H0219038  28.857   2.663   5.208 -0.5572  1.0524  0.0345
 2116UNK    C0319039  28.960   2.840   5.131 -0.5722  0.9605 -0.3222
 2116UNK    C0419040  28.924   2.923   5.014  0.0146 -0.3169  0.4182
 2116UNK    F0519041  28.793   2.932   4.998  0.0023  0.1848  0.5533
 2116UNK    F0619042  28.974   3.047   5.042  0.2906 -0.6638 -0.6167
 2116UNK    F0719043  28.985   2.879   4.901 -0.5691  0.3157 -0.4682
 2116UNK    H0819044  29.043   2.886   5.184 -0.3582  0.3294 -0.1034
 2117UNK    F0019045  19.238   2.468   3.347 -0.1960  0.6221  0.5461
 2117UNK    C0119046  19.302   2.506   3.456 -0.0529 -0.7411 -0.8497
 2117UNK    H0219047  19.393   2.558   3.428 -0.1625  0.0206  0.2055
 2117UNK    C0319048  19.294   2.414   3.556 -0.0884  0.0302 -0.2942
 2117UNK    C0419049  19.317   2.451   3.699 -0.3894 -0.1266  0.5921
 2117UNK    F0519050  19.209   2.523   3.744 -0.0198  0.4868  0.4793
 2117UNK    F0619051  19.328   2.352   3.788  0.2546  0.5537  0.2494
 2117UNK    F0719052  19.428   2.534   3.716  0.8283  0.1269  0.2289
 2117UNK    H0819053  19.249   2.318   3.538 -1.5260  1.0543 -2.4702
 2118UNK    F0019054  49.833   3.735   7.584 -0.3036 -0.2958 -0.0131
 2118UNK    C0119055  49.843   3.836   7.501  0.0964  0.2874 -0.8619
 2118UNK    H0219056  49.949   3.860   7.490  0.0291  0.7928 -0.4359
 2118UNK    C0319057  49.731   3.890   7.448 -0.3273 -0.6316  0.0316
 2118UNK    C0419058  49.630   3.804   7.392  0.3422  0.2659 -0.2451
 2118UNK    F0519059  49.673   3.708   7.312  0.1147  0.3992 -0.1024
 2118UNK    F0619060  49.554   3.737   7.485 -0.5894 -0.2206  0.5243
 2118UNK    F0719061  49.545   3.888   7.325  0.8653  0.0860  0.0121
 2118UNK    H0819062  49.734   3.973   7.378  0.3170 -1.9754 -1.5940
 2119UNK    F0019063  40.250   0.341   2.029 -0.0611  0.4692  0.4940
 2119UNK    C0119064  40.360   0.354   2.102  0.3941 -0.2446  1.3236
 2119UNK    H0219065  40.443   0.364   2.032 -0.5499 -2.5475 -0.2107
 2119UNK    C0319066  40.370   0.283   2.211  0.0582 -0.1500 -0.3184
 2119UNK    C0419067  40.455   0.332   2.318 -0.3493 -0.3223 -0.1858
 2119UNK    F0519068  40.493   0.237   2.402 -0.0295 -0.0808 -0.3920
 2119UNK    F0619069  40.571   0.380   2.267  0.5675  0.8028  0.1059
 2119UNK    F0719070  40.386   0.415   2.391 -0.2163 -0.3395 -0.8995
 2119UNK    H0819071  40.321   0.188   2.227 -0.3507  0.0455 -0.4024
 2120UNK    F0019072  28.079   1.438   9.970  0.0313 -0.2003 -0.5169
 2120UNK    C0119073  28.030   1.551  10.020 -0.1025 -0.2842 -0.3931
 2120UNK    H0219074  28.100   1.634  10.009  0.4319 -0.6833 -0.0855
 2120UNK    C0319075  27.897   1.559  10.031  0.0840 -0.4230 -0.0959
 2120UNK    C0419076  27.832   1.492  10.149 -0.7138  0.1664  0.4987
 2120UNK    F0519077  27.860   1.361  10.168 -0.6880  0.3090  0.3163
 2120UNK    F0619078  27.900   1.549  10.258 -0.2649 -0.2130  0.1543
 2120UNK    F0719079  27.702   1.517  10.133  0.5874  0.1376  0.3612
 2120UNK    H0819080  27.834   1.571   9.944  2.3977  0.4872 -1.7189
 2121UNK    F0019081  48.755   2.077   6.689  0.1537  0.3150 -0.1559
 2121UNK    C0119082  48.804   1.955   6.718 -0.5777 -0.0703 -0.2031
 2121UNK    H0219083  48.913   1.955   6.719 -0.5823 -1.4012  0.9520
 2121UNK    C0319084  48.732   1.846   6.689  0.2230  0.2518 -0.0039
 2121UNK    C0419085  48.685   1.813   6.551  0.7188  0.1995  0.6475
 2121UNK    F0519086  48.780   1.727   6.500 -0.5608 -0.5094 -0.2760
 2121UNK    F0619087  48.570   1.748   6.556 -0.1512  0.0441  0.4441
 2121UNK    F0719088  48.686   1.920   6.466 -0.6095 -0.4857  0.3030
 2121UNK    H0819089  48.727   1.764   6.759  1.4978 -1.0238 -1.3765
 2122UNK    F0019090   8.304   3.809  14.311  0.7461 -0.2232  0.0041
 2122UNK    C0119091   8.201   3.885  14.289  0.0532 -1.4315  0.0136
 2122UNK    H0219092   8.118   3.853  14.351 -0.2653 -0.3139  0.1773
 2122UNK    C0319093   8.203   3.970  14.177  0.2788 -0.0064  0.8490
 2122UNK    C0419094   8.122   4.090  14.148  0.1158  0.0821  0.3773
 2122UNK    F0519095   8.176   4.206  14.191 -0.0854  0.6657 -0.6842
 2122UNK    F0619096   8.094   4.086  14.009 -0.4896 -0.2333 -0.0736
 2122UNK    F0719097   8.005   4.060  14.216 -0.0316 -0.4151  0.1428
 2122UNK    H0819098   8.269   3.944  14.095 -1.6014  1.8765 -1.3135
 2123UNK    F0019099  15.000   2.297   8.374  0.0504  0.2817 -0.1633
 2123UNK    C0119100  15.084   2.322   8.270  0.0385 -0.9991 -0.1969
 2123UNK    H0219101  15.189   2.310   8.296  0.1509 -0.7090 -0.5164
 2123UNK    C0319102  15.026   2.349   8.159 -0.2525  0.3170 -0.1511
 2123UNK    C0419103  15.091   2.331   8.025 -0.4300  0.3735  0.8386
 2123UNK    F0519104  15.173   2.223   8.019  0.0767  0.1504  0.2271
 2123UNK    F0619105  15.001   2.325   7.920  0.0551 -0.2855  0.1049
 2123UNK    F0719106  15.166   2.440   8.000 -0.1256  0.3135  0.1612
 2123UNK    H0819107  14.919   2.337   8.153 -0.1457 -0.7616  0.0657
 2124UNK    F0019108  28.025   2.368  11.092  0.0647  0.1369  0.4333
 2124UNK    C0119109  27.907   2.426  11.109 -0.1528  0.8335 -0.5664
 2124UNK    H0219110  27.877   2.423  11.214 -1.0515  2.2309 -0.7613
 2124UNK    C0319111  27.870   2.512  11.016 -0.2830 -0.2269  0.0982
 2124UNK    C0419112  27.792   2.490  10.898  0.6770  0.3372 -0.4813
 2124UNK    F0519113  27.672   2.557  10.905  0.1966  0.0017 -0.1260
 2124UNK    F0619114  27.861   2.529  10.791  0.5330 -0.1831 -0.0040
 2124UNK    F0719115  27.765   2.359  10.891 -0.0863 -0.7800  0.0287
 2124UNK    H0819116  27.943   2.587  10.990 -0.5748  0.2936  0.7795
 2125UNK    F0019117  51.524   2.344   5.565 -0.4012 -0.5427  0.3082
 2125UNK    C0119118  51.445   2.411   5.477 -0.1927  0.3287 -0.6201
 2125UNK    H0219119  51.340   2.394   5.501  0.1341  0.3212  0.8987
 2125UNK    C0319120  51.502   2.430   5.354 -0.3714  0.7330 -0.3729
 2125UNK    C0419121  51.426   2.405   5.235  0.3797  0.3524  0.3489
 2125UNK    F0519122  51.508   2.370   5.133 -0.2129 -0.4237 -0.6435
 2125UNK    F0619123  51.329   2.316   5.244  0.2140  0.1694  0.4779
 2125UNK    F0719124  51.369   2.513   5.182 -0.0431 -0.0784 -0.3651
 2125UNK    H0819125  51.570   2.513   5.340  1.7831 -1.1510 -1.3894
 2126UNK    F0019126  28.126   1.910  13.626 -0.1323 -0.1122  0.4746
 2126UNK    C0119127  28.120   2.037  13.640  0.2854  0.8548 -0.9676
 2126UNK    H0219128  28.160   2.068  13.737 -2.1290 -1.9470  0.9906
 2126UNK    C0319129  28.102   2.108  13.531 -0.4253 -0.3780 -0.3177
 2126UNK    C0419130  28.152   2.248  13.502  0.0273 -0.1526 -0.3288
 2126UNK    F0519131  28.101   2.294  13.393  0.1786  0.0040  0.6397
 2126UNK    F0619132  28.119   2.327  13.605 -0.3691  0.5666 -0.1155
 2126UNK    F0719133  28.293   2.251  13.492 -0.0132 -0.3490  0.0782
 2126UNK    H0819134  28.068   2.049  13.447  0.5926  1.4824 -2.0797
 2127UNK    F0019135  25.662   3.592   4.812 -0.0397 -0.3745 -0.0770
 2127UNK    C0119136  25.709   3.600   4.686  0.3415  0.2208 -0.5020
 2127UNK    H0219137  25.646   3.537   4.623 -1.8570  3.1590 -1.3878
 2127UNK    C0319138  25.837   3.619   4.681  0.3435 -0.0997 -0.2767
 2127UNK    C0419139  25.903   3.686   4.566 -0.0627  0.2016  0.3124
 2127UNK    F0519140  25.916   3.817   4.583  0.2985 -0.3208 -0.2511
 2127UNK    F0619141  26.029   3.639   4.566  0.0906 -0.3523  0.2847
 2127UNK    F0719142  25.834   3.672   4.448 -0.0050 -0.2360 -0.3138
 2127UNK    H0819143  25.897   3.649   4.765  1.5465  1.0183 -1.5012
 2128UNK    F0019144  11.178   2.478   3.135 -0.1655  0.4030  0.0696
 2128UNK    C0119145  11.168   2.379   3.044 -0.1491 -0.0042 -0.2096
 2128UNK    H0219146  11.189   2.415   2.943  0.7309 -1.3832 -0.5261
 2128UNK    C0319147  11.114   2.265   3.069 -0.4514 -0.3351 -0.9000
 2128UNK    C0419148  11.112   2.154   2.974 -0.0489 -0.1676  0.3381
 2128UNK    F0519149  11.082   2.196   2.850  0.0042  0.1235  0.0415
 2128UNK    F0619150  11.236   2.099   2.979 -0.0367 -0.0059 -0.4765
 2128UNK    F0719151  11.022   2.061   3.012 -0.5619 -0.7766  0.2601
 2128UNK    H0819152  11.144   2.217   3.161  1.0609  1.4805 -0.4235
 2129UNK    F0019153   6.907   3.348   1.980  0.0196  0.2531 -0.6115
 2129UNK    C0119154   6.823   3.429   2.044 -0.3494  0.4030  0.0500
 2129UNK    H0219155   6.720   3.394   2.035  0.2440 -2.3505  3.0855
 2129UNK    C0319156   6.874   3.532   2.112  0.1225 -0.5994  0.2090
 2129UNK    C0419157   6.839   3.667   2.079  0.3884  0.3625  0.2458
 2129UNK    F0519158   6.934   3.760   2.113 -0.1670 -0.3440  0.0796
 2129UNK    F0619159   6.809   3.689   1.949  0.3388  0.2553  0.2902
 2129UNK    F0719160   6.721   3.684   2.139 -0.1683 -0.5932 -0.3792
 2129UNK    H0819161   6.937   3.523   2.199 -2.5419 -1.0397  2.1405
 2130UNK    F0019162  48.383   4.197  11.717 -0.1597  0.2152 -0.0316
 2130UNK    C0119163  48.417   4.121  11.822  0.9467 -0.2768 -0.0864
 2130UNK    H0219164  48.504   4.056  11.811  0.5573 -0.8054 -0.0695
 2130UNK    C0319165  48.347   4.147  11.932 -0.7720 -0.4143  0.3890
 2130UNK    C0419166  48.396   4.084  12.057  0.8320  0.0688  0.2530
 2130UNK    F0519167  48.299   4.045  12.142 -0.0196  0.0970  0.1799
 2130UNK    F0619168  48.463   3.969  12.028 -0.3132 -0.5482  0.2227
 2130UNK    F0719169  48.495   4.156  12.111 -0.2231  0.1786 -0.2568
 2130UNK    H0819170  48.282   4.233  11.939  1.3507  1.2356  0.3879
 2131UNK    F0019171  16.854   1.521   3.876 -0.1074 -0.0488 -0.5298
 2131UNK    C0119172  16.913   1.615   3.807 -0.5029  0.0898  0.2426
 2131UNK    H0219173  16.951   1.691   3.875  0.1515 -1.4940  1.6736
 2131UNK    C0319174  16.956   1.601   3.682 -0.0650  0.1261 -0.6667
 2131UNK    C0419175  17.037   1.713   3.627  0.0353 -0.1753 -0.4184
 2131UNK    F0519176  17.046   1.704   3.492  0.1816 -0.2703  0.5579
 2131UNK    F0619177  16.985   1.840   3.646  0.2291 -0.0279 -0.0523
 2131UNK    F0719178  17.169   1.705   3.667  0.1406  0.2868 -0.2881
 2131UNK    H0819179  16.988   1.502   3.652  1.9280  0.2490  0.8951
 2132UNK    F0019180  11.962   4.020  12.653 -0.0126  0.6814  0.2278
 2132UNK    C0119181  11.928   3.914  12.585 -0.4657  0.0644  0.5213
 2132UNK    H0219182  11.860   3.846  12.636 -0.2323 -1.2257 -0.8525
 2132UNK    C0319183  11.975   3.893  12.462  0.5949  0.0503 -0.1823
 2132UNK    C0419184  11.883   3.869  12.347  0.4064 -0.2400  0.2810
 2132UNK    F0519185  11.799   3.968  12.327  0.1282  0.1971  0.3897
 2132UNK    F0619186  11.954   3.848  12.238  0.3786 -0.3862  0.5424
 2132UNK    F0719187  11.815   3.750  12.368 -0.1247 -0.1842 -0.1623
 2132UNK    H0819188  12.078   3.892  12.431  0.1021  0.3053 -1.9008
 2133UNK    F0019189  42.923   1.759   5.680 -0.4795  0.1751 -1.1534
 2133UNK    C0119190  42.973   1.634   5.657 -0.1033  0.1957 -0.0854
 2133UNK    H0219191  42.979   1.577   5.750 -1.2553 -0.6098 -0.4948
 2133UNK    C0319192  42.988   1.590   5.533 -0.4369  0.0645 -0.5304
 2133UNK    C0419193  43.057   1.464   5.508 -0.2032 -0.8652 -0.1415
 2133UNK    F0519194  43.184   1.459   5.549 -0.0330 -0.1493 -0.2997
 2133UNK    F0619195  42.988   1.367   5.570 -0.0577  0.2680 -0.0840
 2133UNK    F0719196  43.067   1.427   5.373 -0.1197 -0.2051  0.5007
 2133UNK    H0819197  42.918   1.609   5.453 -1.2857  0.1303  0.2229
 2134UNK    F0019198  19.485   3.437   2.116 -0.3208 -0.1299  0.5167
 2134UNK    C0119199  19.407   3.548   2.138  0.7516  0.9416  0.2592
 2134UNK    H0219200  19.377   3.588   2.041 -0.6661 -0.3416  0.1645
 2134UNK    C0319201  19.344   3.554   2.253 -0.3821 -0.2102 -0.7450
 2134UNK    C0419202  19.257   3.665   2.297  0.1741  0.4217 -0.3369
 2134UNK    F0519203  19.307   3.783   2.286  0.5767  0.2337 -0.1499
 2134UNK    F0619204  19.135   3.681   2.249  0.0614  0.0704  0.2177
 2134UNK    F0719205  19.231   3.632   2.421 -0.5765 -0.0733  0.2552
 2134UNK    H0819206  19.339   3.480   2.332 -1.0683  0.3412 -0.2649
 2135UNK    F0019207  24.457   2.469  10.927  0.3151  0.0101 -0.2514
 2135UNK    C0119208  24.509   2.344  10.927 -0.0318  0.1464 -0.0615
 2135UNK    H0219209  24.513   2.292  11.023  0.2996  0.8539  0.3076
 2135UNK    C0319210  24.571   2.301  10.819  0.3671 -0.6413  0.1169
 2135UNK    C0419211  24.588   2.154  10.802  0.1975 -0.1585 -0.1426
 2135UNK    F0519212  24.703   2.115  10.755 -0.2280 -0.0676  0.1939
 2135UNK    F0619213  24.573   2.093  10.925  0.3639  0.2573  0.8751
 2135UNK    F0719214  24.497   2.111  10.711 -0.1139 -0.7123 -0.6223
 2135UNK    H0819215  24.598   2.370  10.740  0.4711  0.5242  1.1509
 2136UNK    F0019216  29.886   0.969   9.497 -0.2978 -0.2375  0.1297
 2136UNK    C0119217  29.755   0.932   9.492  0.5636  0.7229 -0.3245
 2136UNK    H0219218  29.691   1.018   9.471 -0.0672 -0.4350 -3.3552
 2136UNK    C0319219  29.729   0.813   9.440  0.2863  0.0677 -0.4216
 2136UNK    C0419220  29.595   0.767   9.399  0.2474 -0.0073  1.6670
 2136UNK    F0519221  29.584   0.634   9.403 -0.1276 -0.2325  0.4182
 2136UNK    F0619222  29.504   0.820   9.489  0.0063 -0.2327  0.2275
 2136UNK    F0719223  29.552   0.817   9.273 -0.8919 -0.8387  0.3667
 2136UNK    H0819224  29.811   0.767   9.386 -0.3643 -1.2507 -0.3127
 2137UNK    F0019225  21.478   3.459  12.254  0.0759 -0.6284 -0.4793
 2137UNK    C0119226  21.369   3.482  12.322  0.1505  0.1370 -0.3035
 2137UNK    H0219227  21.388   3.468  12.429 -1.7639  1.1561  0.2047
 2137UNK    C0319228  21.280   3.561  12.265 -0.4871  0.5550 -0.6388
 2137UNK    C0419229  21.153   3.508  12.213  0.1087 -0.1539  0.5788
 2137UNK    F0519230  21.150   3.384  12.163  0.2596  0.2302  0.3433
 2137UNK    F0619231  21.060   3.507  12.310 -0.1965  0.0568 -0.3600
 2137UNK    F0719232  21.089   3.579  12.123  0.4065  0.1416  1.1987
 2137UNK    H0819233  21.324   3.635  12.200  1.5204  1.1540  1.3384
 2138UNK    F0019234  25.387   2.869   1.927 -1.2166 -0.6762 -0.1019
 2138UNK    C0119235  25.436   2.891   2.053 -0.0720 -0.2599 -0.0759
 2138UNK    H0219236  25.544   2.875   2.059 -0.0168  0.3116  0.5694
 2138UNK    C0319237  25.360   2.852   2.158  0.2213  0.1282  0.3488
 2138UNK    C0419238  25.341   2.923   2.276  0.4500  0.6137  0.5048
 2138UNK    F0519239  25.232   3.007   2.258 -0.0132 -0.1486 -0.4769
 2138UNK    F0619240  25.319   2.842   2.380 -0.5727 -0.6102 -0.0408
 2138UNK    F0719241  25.448   3.002   2.306  0.2720 -0.5413 -0.1666
 2138UNK    H0819242  25.310   2.756   2.163  1.4361 -0.4593  1.3453
 2139UNK    F0019243  26.993   4.492   4.459 -0.1711  0.3344  0.1734
 2139UNK    C0119244  26.864   4.523   4.474 -1.0779  0.1035 -0.2333
 2139UNK    H0219245  26.845   4.546   4.579  1.5591  1.2875  0.0384
 2139UNK    C0319246  26.818   4.591   4.371 -0.1594  0.9027  0.2466
 2139UNK    C0419247  26.775   4.530   4.247 -0.1380 -1.2378  0.1695
 2139UNK    F0519248  26.741   4.627   4.156 -0.3215 -0.3913 -0.4215
 2139UNK    F0619249  26.880   4.467   4.184  0.0808 -0.1395 -0.4165
 2139UNK    F0719250  26.675   4.435   4.255 -0.0316 -0.0750  0.0006
 2139UNK    H0819251  26.810   4.698   4.370 -1.1847  0.8540  2.0510
 2140UNK    F0019252   5.379   2.104   1.234  0.0272 -0.1122 -0.3822
 2140UNK    C0119253   5.374   1.994   1.160 -0.4067  0.5349  0.1374
 2140UNK    H0219254   5.316   1.916   1.210  1.0827 -0.3058  0.5690
 2140UNK    C0319255   5.474   1.984   1.071  0.1976 -0.2549  0.0158
 2140UNK    C0419256   5.484   1.877   0.978  0.0332 -0.1769  0.4331
 2140UNK    F0519257   5.387   1.878   0.895 -0.8694 -0.4188 -0.5331
 2140UNK    F0619258   5.595   1.898   0.905 -0.2858 -1.0156 -0.5222
 2140UNK    F0719259   5.502   1.759   1.049  0.6664 -0.1527 -0.5027
 2140UNK    H0819260   5.562   2.044   1.089 -2.0109  2.5360  2.0053
 2141UNK    F0019261  26.898   2.721   3.546  0.0384 -0.2241  0.0353
 2141UNK    C0119262  26.906   2.858   3.554  0.0779 -0.7909  0.5638
 2141UNK    H0219263  26.995   2.896   3.503  1.2977 -1.4563  2.1278
 2141UNK    C0319264  26.811   2.928   3.610 -0.1454 -0.2041  0.4011
 2141UNK    C0419265  26.800   3.077   3.599  0.0140  0.2462 -0.0376
 2141UNK    F0519266  26.798   3.115   3.471 -0.1388  0.6014  0.2468
 2141UNK    F0619267  26.687   3.130   3.649 -0.4637 -0.0237  0.9393
 2141UNK    F0719268  26.900   3.149   3.645 -0.0892 -0.6704  0.2090
 2141UNK    H0819269  26.772   2.895   3.705  2.1038 -3.0593  0.3963
 2142UNK    F0019270  34.725   3.423   6.364  0.0585 -0.2926  0.0044
 2142UNK    C0119271  34.808   3.374   6.272  0.1995  0.2876 -0.2503
 2142UNK    H0219272  34.842   3.284   6.322  1.3271  1.2524  0.7524
 2142UNK    C0319273  34.882   3.459   6.200  0.0358 -0.7295 -0.1915
 2142UNK    C0419274  35.010   3.528   6.249 -0.3094 -0.4498 -0.0997
 2142UNK    F0519275  35.000   3.596   6.366  0.0650 -0.3816 -0.7997
 2142UNK    F0619276  35.126   3.453   6.240  0.2263  0.7047 -0.0241
 2142UNK    F0719277  35.031   3.626   6.157 -0.3522  0.0824 -0.4298
 2142UNK    H0819278  34.843   3.507   6.112  0.1093 -0.4459 -0.0694
 2143UNK    F0019279  12.604   4.078   5.921 -0.2082 -0.7318 -0.7587
 2143UNK    C0119280  12.491   4.034   5.978 -0.4570  0.3018 -0.1084
 2143UNK    H0219281  12.457   3.937   5.944 -1.9335  0.3344  1.2443
 2143UNK    C0319282  12.432   4.106   6.069 -0.0633  0.6371  0.6081
 2143UNK    C0419283  12.347   4.051   6.178  0.1935 -0.3702 -0.0408
 2143UNK    F0519284  12.420   4.022   6.291  0.1771  0.1235  0.0921
 2143UNK    F0619285  12.272   4.148   6.230 -0.0796 -0.0708 -0.2821
 2143UNK    F0719286  12.276   3.940   6.150  0.1461  0.2849 -0.2978
 2143UNK    H0819287  12.484   4.196   6.102  1.2336 -0.0073  0.3563
 2144UNK    F0019288  35.831   2.797  11.780  0.0816  0.1432  0.3183
 2144UNK    C0119289  35.792   2.831  11.906  0.2068 -0.4450 -0.1310
 2144UNK    H0219290  35.729   2.755  11.953  2.6087 -1.5759  1.3652
 2144UNK    C0319291  35.865   2.931  11.966 -0.3208  0.2451 -0.0471
 2144UNK    C0419292  35.837   3.072  11.944  0.0171 -0.1716 -0.7107
 2144UNK    F0519293  35.867   3.110  11.814  0.2698  0.0461  0.2337
 2144UNK    F0619294  35.706   3.109  11.959 -0.0738  0.5528 -0.5623
 2144UNK    F0719295  35.907   3.142  12.031 -0.2746 -0.1938  0.1375
 2144UNK    H0819296  35.959   2.904  12.014  0.9135  0.7712 -2.1049
 2145UNK    F0019297  11.193   0.408  11.171 -0.1718 -0.1317 -0.1323
 2145UNK    C0119298  11.257   0.490  11.094 -0.0072 -0.0881  0.6332
 2145UNK    H0219299  11.340   0.439  11.044 -0.7234  0.6662 -1.3530
 2145UNK    C0319300  11.245   0.621  11.104 -0.0488 -0.2085 -0.1490
 2145UNK    C0419301  11.298   0.721  11.013 -0.3300 -0.5978  0.3969
 2145UNK    F0519302  11.218   0.754  10.909  0.3323  0.3652 -0.4427
 2145UNK    F0619303  11.328   0.841  11.062  0.2749 -0.0477 -0.2262
 2145UNK    F0719304  11.412   0.668  10.958  0.2839  0.4667  0.3540
 2145UNK    H0819305  11.209   0.664  11.196  2.6547  2.7608 -0.3824
 2146UNK    F0019306  41.604   3.689   1.068 -1.1256  0.0999  0.0242
 2146UNK    C0119307  41.529   3.756   0.985 -0.4104  0.3067 -0.5622
 2146UNK    H0219308  41.591   3.809   0.912  1.2045 -2.8153 -1.5939
 2146UNK    C0319309  41.404   3.783   1.021  0.2467  0.1948  0.1844
 2146UNK    C0419310  41.362   3.905   1.097 -0.5739 -0.0172 -0.1328
 2146UNK    F0519311  41.454   3.914   1.198  0.5086 -0.2215 -0.0571
 2146UNK    F0619312  41.356   4.018   1.027  0.0419 -0.4109  0.1715
 2146UNK    F0719313  41.235   3.898   1.161  0.6357 -0.7706 -0.0434
 2146UNK    H0819314  41.350   3.690   1.034 -0.6738  0.5602 -0.8696
 2147UNK    F0019315  19.906   0.471   4.629 -0.1667 -0.0565 -0.4583
 2147UNK    C0119316  19.994   0.522   4.718  0.0941 -0.3376 -0.6361
 2147UNK    H0219317  19.944   0.552   4.810 -2.6755 -3.5376 -1.0177
 2147UNK    C0319318  20.120   0.499   4.698 -0.0203  0.7245 -0.5469
 2147UNK    C0419319  20.217   0.558   4.789 -0.5457  0.9482  0.4372
 2147UNK    F0519320  20.187   0.689   4.804  0.2775 -0.5458 -0.0658
 2147UNK    F0619321  20.219   0.500   4.904 -0.0224  0.1428 -0.5975
 2147UNK    F0719322  20.344   0.559   4.742  0.1890  0.1763 -0.6511
 2147UNK    H0819323  20.147   0.395   4.687  1.7628  0.5348  4.3344
 2148UNK    F0019324  46.826   3.247   1.060  0.0651  0.2314  0.4191
 2148UNK    C0119325  46.896   3.288   1.169 -0.0940 -0.7087  0.9320
 2148UNK    H0219326  46.909   3.202   1.236 -0.2305  0.3391  2.3202
 2148UNK    C0319327  46.995   3.373   1.155 -0.1891  0.2742 -0.0724
 2148UNK    C0419328  46.992   3.520   1.154 -0.7784  0.5738 -0.0568
 2148UNK    F0519329  46.938   3.574   1.266  0.3474  0.2065  0.3601
 2148UNK    F0619330  47.118   3.567   1.150  0.8258 -0.2020  0.1984
 2148UNK    F0719331  46.927   3.571   1.053 -0.0067  0.2586 -0.0303
 2148UNK    H0819332  47.089   3.338   1.114 -1.5346 -0.9856 -2.2104
 2149UNK    F0019333  42.514   3.588   7.335  0.0237 -0.0103  0.4522
 2149UNK    C0119334  42.537   3.478   7.411 -0.4290 -0.5497  0.0323
 2149UNK    H0219335  42.534   3.502   7.517  1.4179  2.2348 -0.4731
 2149UNK    C0319336  42.516   3.364   7.351 -0.4304 -0.3996 -0.2147
 2149UNK    C0419337  42.490   3.232   7.418 -0.1175  0.6477  0.0040
 2149UNK    F0519338  42.526   3.122   7.342 -0.3813 -0.0460 -0.1728
 2149UNK    F0619339  42.562   3.224   7.536  0.4116  0.5963  0.7489
 2149UNK    F0719340  42.365   3.211   7.459 -0.0588 -0.3235 -0.2937
 2149UNK    H0819341  42.481   3.375   7.250 -1.0903  0.4038  0.0902
 2150UNK    F0019342  34.268   3.074  10.747 -0.5558 -0.8373 -0.5522
 2150UNK    C0119343  34.176   3.125  10.657  0.0363  0.3505 -0.1501
 2150UNK    H0219344  34.093   3.056  10.646 -0.4247  0.8648  0.0327
 2150UNK    C0319345  34.155   3.259  10.660 -0.0192 -0.2835  0.4871
 2150UNK    C0419346  34.030   3.322  10.608  0.1483 -0.4154 -0.4961
 2150UNK    F0519347  34.062   3.450  10.559  0.2036  0.0530  0.0810
 2150UNK    F0619348  33.962   3.254  10.508  0.4205  0.0890  0.3061
 2150UNK    F0719349  33.951   3.344  10.719  0.2788 -0.0072  0.8892
 2150UNK    H0819350  34.226   3.324  10.709  0.7159  0.4180 -1.4944
 2151UNK    F0019351  22.943   3.290   5.795  0.8970  0.6936  0.3503
 2151UNK    C0119352  23.046   3.316   5.721  0.2634  0.2288 -0.1369
 2151UNK    H0219353  23.032   3.415   5.678  0.6830  1.7479  3.0416
 2151UNK    C0319354  23.152   3.236   5.720  0.1065 -0.4984 -0.4594
 2151UNK    C0419355  23.268   3.271   5.637 -0.3554 -0.5046 -0.5376
 2151UNK    F0519356  23.344   3.166   5.601  0.0356  0.4305  0.3195
 2151UNK    F0619357  23.224   3.337   5.526 -0.0773  0.3234  0.5399
 2151UNK    F0719358  23.342   3.359   5.706  0.0312 -0.2368  0.7011
 2151UNK    H0819359  23.171   3.155   5.787 -0.9571  0.1039  0.5890
 2152UNK    F0019360   5.730   1.267   9.498 -0.2993 -0.4030 -0.3184
 2152UNK    C0119361   5.638   1.328   9.418  0.3032  0.5315 -0.4935
 2152UNK    H0219362   5.679   1.417   9.370 -1.7425  2.7347  1.7095
 2152UNK    C0319363   5.507   1.298   9.409 -0.4373  1.2199 -0.1490
 2152UNK    C0419364   5.416   1.349   9.306 -0.2997 -0.0761 -0.8197
 2152UNK    F0519365   5.417   1.483   9.289 -0.0803 -0.8975 -1.0775
 2152UNK    F0619366   5.453   1.283   9.195  0.8105  0.1424  0.1746
 2152UNK    F0719367   5.288   1.302   9.333 -0.0776 -0.1940 -0.0111
 2152UNK    H0819368   5.487   1.193   9.428  3.7688  0.3263 -0.1110
 2153UNK    F0019369   7.987   4.521   5.836  0.0836 -0.2587 -0.4056
 2153UNK    C0119370   8.027   4.484   5.962  0.0286  0.1002  0.6096
 2153UNK    H0219371   8.071   4.385   5.966 -0.4647 -0.1153  0.7545
 2153UNK    C0319372   7.974   4.552   6.063  0.5079 -0.3097 -0.5289
 2153UNK    C0419373   7.952   4.697   6.083 -0.5267 -0.5534  0.4575
 2153UNK    F0519374   7.858   4.754   6.002  0.4722 -0.0437  0.6774
 2153UNK    F0619375   7.907   4.705   6.211 -0.2999  0.3458 -0.1109
 2153UNK    F0719376   8.075   4.756   6.061 -0.1193 -0.0849 -0.1508
 2153UNK    H0819377   7.930   4.494   6.143 -2.3321  0.1879 -1.6869
 2154UNK    F0019378  43.156   4.578   4.390 -0.1495  0.3962  0.1520
 2154UNK    C0119379  43.278   4.517   4.375  0.0863 -0.2362 -0.8388
 2154UNK    H0219380  43.345   4.601   4.356 -2.4883  2.0610 -0.0987
 2154UNK    C0319381  43.301   4.414   4.456 -0.5326 -0.0051  0.3755
 2154UNK    C0419382  43.294   4.432   4.603 -0.3371  0.0391  0.0638
 2154UNK    F0519383  43.370   4.339   4.664 -0.5086  0.1950  0.6892
 2154UNK    F0619384  43.334   4.559   4.645  1.0798  0.2110  1.1542
 2154UNK    F0719385  43.173   4.416   4.650 -0.1943  0.2442  0.1759
 2154UNK    H0819386  43.281   4.315   4.415  0.2181  0.1160 -0.2922
 2155UNK    F0019387  29.276   0.901  10.412 -0.9293 -0.0574 -0.3335
 2155UNK    C0119388  29.272   0.772  10.418 -0.2637 -0.0486 -0.1795
 2155UNK    H0219389  29.172   0.744  10.452  0.3571 -1.8541  0.2149
 2155UNK    C0319390  29.361   0.684  10.358 -0.0700 -0.6975 -0.7287
 2155UNK    C0419391  29.372   0.542  10.373 -0.0333 -0.0957 -0.3453
 2155UNK    F0519392  29.400   0.495  10.499 -0.2235  0.2962  0.2932
 2155UNK    F0619393  29.248   0.496  10.345 -0.7207  0.2407  0.0050
 2155UNK    F0719394  29.466   0.490  10.291 -0.0110  0.0252  0.0314
 2155UNK    H0819395  29.398   0.710  10.260 -1.4167  2.5737 -0.4613
 2156UNK    F0019396   8.178   4.637   9.031 -0.2807  0.3991 -0.6377
 2156UNK    C0119397   8.272   4.645   8.941 -0.7117 -0.1261  1.0065
 2156UNK    H0219398   8.337   4.557   8.948 -0.8349 -0.3517 -0.5112
 2156UNK    C0319399   8.240   4.691   8.826  0.5180 -0.4189  0.4363
 2156UNK    C0419400   8.283   4.638   8.699  0.2012  0.1312  0.1168
 2156UNK    F0519401   8.397   4.691   8.658  0.0164  0.3431 -0.4108
 2156UNK    F0619402   8.321   4.507   8.712  0.1943  0.1433  0.2158
 2156UNK    F0719403   8.179   4.635   8.615  0.2070  0.2455  0.0212
 2156UNK    H0819404   8.170   4.772   8.817  0.8942 -0.2343 -0.9434
 2157UNK    F0019405   9.967   3.389   8.933  0.1229 -0.0041 -0.2911
 2157UNK    C0119406   9.859   3.364   9.009  0.0961 -0.0899  0.6997
 2157UNK    H0219407   9.865   3.424   9.100 -2.0248  0.0213  0.7922
 2157UNK    C0319408   9.789   3.248   8.981  0.2883 -0.2360  0.4117
 2157UNK    C0419409   9.642   3.253   8.964 -0.0626  0.2526 -0.2701
 2157UNK    F0519410   9.581   3.135   8.979 -0.1704 -0.2423  0.5905
 2157UNK    F0619411   9.590   3.332   9.061 -0.7474 -0.1959 -0.5673
 2157UNK    F0719412   9.616   3.311   8.841  0.5095 -0.3052  0.5563
 2157UNK    H0819413   9.841   3.163   8.938 -1.4014  0.2427 -2.7264
 2158UNK    F0019414  23.730   2.201  13.046 -0.3022  0.3656 -0.7608
 2158UNK    C0119415  23.650   2.282  12.984  0.2564 -0.4519  0.1935
 2158UNK    H0219416  23.696   2.324  12.894 -0.5552 -0.4385 -0.2162
 2158UNK    C0319417  23.526   2.292  13.032 -0.1623 -0.6610 -0.4212
 2158UNK    C0419418  23.511   2.374  13.156 -0.3251  0.7872  0.3122
 2158UNK    F0519419  23.444   2.321  13.257  0.1309 -0.2505  1.0591
 2158UNK    F0619420  23.628   2.399  13.218  0.4707 -0.8138 -0.0107
 2158UNK    F0719421  23.453   2.494  13.129  0.1208 -0.4867 -0.2147
 2158UNK    H0819422  23.467   2.203  13.047 -0.3949 -0.5071 -0.4189
 2159UNK    F0019423  10.558   2.536   4.171 -0.5928  0.0988  0.1463
 2159UNK    C0119424  10.647   2.437   4.205 -0.4218  0.3436  0.7822
 2159UNK    H0219425  10.602   2.377   4.283 -0.0783  0.8033  1.3355
 2159UNK    C0319426  10.772   2.460   4.177  0.7164 -0.3123  0.4414
 2159UNK    C0419427  10.847   2.529   4.272 -0.0622  0.2301 -0.2279
 2159UNK    F0519428  10.784   2.609   4.359  0.3647 -0.1222 -0.9492
 2159UNK    F0619429  10.905   2.459   4.369 -0.8764  0.4700 -0.1919
 2159UNK    F0719430  10.935   2.605   4.204  0.2681 -0.1254 -0.6731
 2159UNK    H0819431  10.802   2.478   4.074 -3.2375  2.9706 -0.2737
 2160UNK    F0019432  28.480   2.952   5.062 -0.0235 -0.0165 -0.2987
 2160UNK    C0119433  28.484   2.959   5.198  0.4655  0.0748 -0.4928
 2160UNK    H0219434  28.584   2.966   5.239  0.0365  1.6677  0.3231
 2160UNK    C0319435  28.394   2.887   5.263  0.2540 -0.0631 -0.3787
 2160UNK    C0419436  28.342   2.762   5.203  0.3017  0.5821  0.4428
 2160UNK    F0519437  28.432   2.710   5.127 -0.1566 -0.8828  0.1656
 2160UNK    F0619438  28.318   2.670   5.298 -0.3639 -0.0750  0.1112
 2160UNK    F0719439  28.231   2.773   5.130 -0.0824  0.0746  0.3730
 2160UNK    H0819440  28.389   2.900   5.370  0.8605 -1.1836 -0.2009
 2161UNK    F0019441  47.444   2.965   2.622  0.0660 -0.2884 -0.0098
 2161UNK    C0119442  47.399   2.896   2.729  1.0496  0.4934 -0.0952
 2161UNK    H0219443  47.292   2.911   2.740  0.8215 -0.9618 -0.3067
 2161UNK    C0319444  47.465   2.781   2.757 -0.4967 -0.4120 -0.2407
 2161UNK    C0419445  47.391   2.673   2.822  0.5416 -0.1340  0.5636
 2161UNK    F0519446  47.260   2.672   2.800 -0.3351  0.0384 -0.2632
 2161UNK    F0619447  47.412   2.547   2.780  0.3176 -0.4301  0.5093
 2161UNK    F0719448  47.408   2.680   2.952 -0.1590  0.0116 -0.2686
 2161UNK    H0819449  47.520   2.741   2.673  2.4488  0.7119  1.0643
 2162UNK    F0019450  41.595   2.665   1.142 -0.0616  0.4096  0.5803
 2162UNK    C0119451  41.488   2.688   1.218 -0.2832  0.3015 -0.6210
 2162UNK    H0219452  41.535   2.673   1.315 -3.6098  0.7863  1.1357
 2162UNK    C0319453  41.382   2.769   1.182 -0.3724  1.3658  0.6915
 2162UNK    C0419454  41.382   2.921   1.174  0.0976  0.0385 -0.1074
 2162UNK    F0519455  41.460   2.985   1.263 -0.0866 -0.1444 -1.3120
 2162UNK    F0619456  41.418   2.951   1.048 -0.2316  0.4139 -0.1152
 2162UNK    F0719457  41.253   2.956   1.184  0.3304 -0.4416 -0.5944
 2162UNK    H0819458  41.284   2.725   1.176 -0.5318  1.7295  0.6053
 2163UNK    F0019459  44.834   0.623   4.483  0.1361  0.2243 -0.1744
 2163UNK    C0119460  44.714   0.567   4.491 -0.7382  1.4941 -0.1576
 2163UNK    H0219461  44.638   0.643   4.474 -1.8244  0.3570 -0.4368
 2163UNK    C0319462  44.704   0.455   4.552 -0.4166 -0.1378  0.0594
 2163UNK    C0419463  44.580   0.376   4.531 -0.1575  0.4170 -0.0543
 2163UNK    F0519464  44.558   0.294   4.641 -0.0053 -0.3574  0.7332
 2163UNK    F0619465  44.464   0.445   4.515 -0.3197 -0.0681  0.1273
 2163UNK    F0719466  44.595   0.293   4.424  0.1170  0.0768 -0.2388
 2163UNK    H0819467  44.793   0.395   4.545 -1.1923 -1.3808  0.6442
 2164UNK    F0019468  13.529   3.499   0.674 -0.0165 -0.2633  1.0430
 2164UNK    C0119469  13.572   3.519   0.800  0.1247  0.2173 -0.3945
 2164UNK    H0219470  13.547   3.617   0.840  1.0321  0.2939 -0.0168
 2164UNK    C0319471  13.673   3.446   0.841  0.2184  0.9082  0.2750
 2164UNK    C0419472  13.714   3.445   0.978 -0.1007  0.2516  1.2555
 2164UNK    F0519473  13.783   3.335   1.012 -0.3407 -0.0267  0.2903
 2164UNK    F0619474  13.804   3.545   1.009 -0.1618 -0.2099  0.0919
 2164UNK    F0719475  13.614   3.466   1.066  0.0751  0.4488 -0.5583
 2164UNK    H0819476  13.757   3.423   0.776  0.3159 -3.1963  1.7174
 2165UNK    F0019477  21.184   2.947   2.017 -0.8687 -0.0473 -0.4341
 2165UNK    C0119478  21.295   3.016   1.972 -0.0369  1.4607 -0.0783
 2165UNK    H0219479  21.302   3.120   2.006  1.0280  1.4839 -0.3450
 2165UNK    C0319480  21.364   2.965   1.870  0.1417 -0.3046  0.1083
 2165UNK    C0419481  21.492   3.014   1.821 -0.8393 -0.0111  0.4305
 2165UNK    F0519482  21.600   2.957   1.882 -0.2505  0.2963 -0.0690
 2165UNK    F0619483  21.508   2.973   1.694 -0.0178  0.0590  0.3436
 2165UNK    F0719484  21.508   3.148   1.805 -1.4327  0.0323  0.2948
 2165UNK    H0819485  21.311   2.904   1.799 -0.5546  0.1774  0.2021
 2166UNK    F0019486   7.945   2.996   3.957  0.1158 -0.0856  0.1001
 2166UNK    C0119487   7.840   3.051   3.900 -0.9542 -0.0575  0.4973
 2166UNK    H0219488   7.780   3.112   3.968 -2.2101 -1.0923  0.3448
 2166UNK    C0319489   7.824   3.049   3.767  0.3901  0.4313 -0.3989
 2166UNK    C0419490   7.795   2.936   3.676 -0.2378 -1.2022 -1.8505
 2166UNK    F0519491   7.831   2.961   3.550  0.7178 -0.1466  0.5461
 2166UNK    F0619492   7.864   2.825   3.690 -0.1410  0.3136 -0.0777
 2166UNK    F0719493   7.659   2.908   3.684  0.2332 -0.0906  0.2439
 2166UNK    H0819494   7.785   3.136   3.717  1.7367  0.6866 -1.0390
 2167UNK    F0019495  35.104   3.973   0.627  0.3129  0.2073  0.2923
 2167UNK    C0119496  35.054   3.970   0.752 -0.2704 -0.3326  0.1202
 2167UNK    H0219497  35.085   4.061   0.804 -1.9119  0.9336 -1.0410
 2167UNK    C0319498  35.037   3.854   0.817  0.7017 -0.1546  0.3057
 2167UNK    C0419499  34.946   3.831   0.930 -0.3208 -0.4436  0.2192
 2167UNK    F0519500  34.998   3.736   1.010  0.6975 -0.4092 -0.5586
 2167UNK    F0619501  34.938   3.940   1.007  0.0976 -0.3583 -0.3712
 2167UNK    F0719502  34.817   3.793   0.896  0.0200 -0.6998 -0.1039
 2167UNK    H0819503  35.091   3.762   0.798 -0.2510 -0.0487 -3.1278
 2168UNK    F0019504  26.513   0.955   3.678  0.4818  0.0080  0.3133
 2168UNK    C0119505  26.596   0.849   3.689  1.2064 -0.0362  0.7249
 2168UNK    H0219506  26.646   0.825   3.594 -1.7478 -1.5190 -0.5089
 2168UNK    C0319507  26.574   0.782   3.795  0.2249 -0.0788 -0.0383
 2168UNK    C0419508  26.565   0.820   3.940  0.5567 -0.4915  0.2025
 2168UNK    F0519509  26.439   0.857   3.957  0.1605  0.0513 -0.8411
 2168UNK    F0619510  26.596   0.719   4.023  0.4175 -0.1662 -0.0783
 2168UNK    F0719511  26.648   0.924   3.968  0.1381  0.8020  0.5632
 2168UNK    H0819512  26.559   0.676   3.781  0.2904  0.0696 -1.2449
 2169UNK    F0019513   7.041   1.698   3.812 -0.1471  0.3619  0.2955
 2169UNK    C0119514   6.936   1.682   3.725  1.0118  0.3572  0.0730
 2169UNK    H0219515   6.935   1.768   3.658 -0.6974  0.4067  0.1363
 2169UNK    C0319516   6.839   1.599   3.750 -0.2751 -0.4494 -0.5799
 2169UNK    C0419517   6.722   1.641   3.835  0.3707  0.6118 -0.3530
 2169UNK    F0519518   6.656   1.537   3.890  0.0332  0.0415 -0.0434
 2169UNK    F0619519   6.765   1.720   3.938  0.4372 -0.2690 -0.1620
 2169UNK    F0719520   6.627   1.707   3.769 -0.9170  0.1521 -0.6039
 2169UNK    H0819521   6.807   1.534   3.670  2.5372 -1.4047 -0.9867
 2170UNK    F0019522  46.079   2.154   9.392 -0.2019 -0.2354 -0.0883
 2170UNK    C0119523  46.087   2.284   9.347 -0.4321  0.3627  0.7336
 2170UNK    H0219524  46.159   2.287   9.265 -0.4944 -1.8623  0.5589
 2170UNK    C0319525  46.045   2.386   9.423  0.1370 -0.3062 -0.2008
 2170UNK    C0419526  46.037   2.525   9.364  0.3425  0.1617  0.6924
 2170UNK    F0519527  46.018   2.619   9.458  0.0419 -0.0780  0.6071
 2170UNK    F0619528  46.158   2.545   9.312  0.3745  0.4234  0.1009
 2170UNK    F0719529  45.940   2.538   9.269 -0.0570  0.4659  0.3704
 2170UNK    H0819530  46.086   2.388   9.523  0.4399 -0.7630 -0.3125
 2171UNK    F0019531  37.959   0.846   4.350  0.1648 -0.0918  0.2066
 2171UNK    C0119532  38.087   0.872   4.390  0.8619 -0.0754  0.2546
 2171UNK    H0219533  38.157   0.795   4.357  0.8402 -0.2968  0.7178
 2171UNK    C0319534  38.128   0.994   4.418  0.1760 -0.5160 -0.3718
 2171UNK    C0419535  38.058   1.119   4.380 -0.1006  0.1496  0.3568
 2171UNK    F0519536  38.114   1.225   4.445 -0.5157  0.0339  0.2998
 2171UNK    F0619537  38.071   1.145   4.253 -0.4078 -0.3233  0.1824
 2171UNK    F0719538  37.925   1.099   4.405 -0.8163  0.1294  0.2836
 2171UNK    H0819539  38.207   1.007   4.490  1.2726 -0.1613 -1.6044
 2172UNK    F0019540  15.682   2.852   5.843  0.2323  0.4604  0.1591
 2172UNK    C0119541  15.813   2.846   5.813  0.2379 -0.2552 -0.1826
 2172UNK    H0219542  15.835   2.923   5.740  0.2106  0.5394  0.6397
 2172UNK    C0319543  15.875   2.737   5.846 -0.7694 -0.6564  0.1935
 2172UNK    C0419544  16.011   2.701   5.794  0.1072  0.1685  0.0492
 2172UNK    F0519545  16.122   2.726   5.869 -0.9304  0.5251  0.9300
 2172UNK    F0619546  16.006   2.573   5.769 -0.2904 -0.3150  0.2307
 2172UNK    F0719547  16.024   2.763   5.679 -0.0352 -0.7580 -0.1032
 2172UNK    H0819548  15.845   2.685   5.936 -1.0323 -4.5096 -2.0090
 2173UNK    F0019549  13.534   1.925   5.429  0.0269 -0.3639  0.5639
 2173UNK    C0119550  13.466   1.848   5.509  0.5934  0.3456  0.3088
 2173UNK    H0219551  13.358   1.852   5.495  0.1885  0.5143  3.0494
 2173UNK    C0319552  13.533   1.783   5.601  0.1630 -0.2302  0.9849
 2173UNK    C0419553  13.475   1.674   5.684  0.8235  0.5518  0.1878
 2173UNK    F0519554  13.344   1.700   5.709 -0.1430 -0.1885  0.0290
 2173UNK    F0619555  13.484   1.545   5.639 -0.0177 -0.1314 -0.3819
 2173UNK    F0719556  13.537   1.670   5.799 -0.6967  0.0641  0.1444
 2173UNK    H0819557  13.640   1.791   5.593 -0.0071  0.0253 -1.1838
 2174UNK    F0019558  49.654   0.925   2.080  0.4404  0.7905  0.2889
 2174UNK    C0119559  49.520   0.935   2.061 -0.1258  0.4758  0.8272
 2174UNK    H0219560  49.470   0.838   2.067  0.8787 -0.2696 -2.1322
 2174UNK    C0319561  49.458   1.051   2.077 -0.2235 -0.0490 -0.9909
 2174UNK    C0419562  49.326   1.063   2.125  0.8409  0.1561 -0.1465
 2174UNK    F0519563  49.262   1.155   2.050 -0.5222 -0.4779  0.2715
 2174UNK    F0619564  49.233   0.961   2.125 -0.3459 -0.1112 -0.4978
 2174UNK    F0719565  49.331   1.105   2.260  0.1560 -0.2312  0.4180
 2174UNK    H0819566  49.520   1.139   2.093  0.1364 -0.4809  0.0630
 2175UNK    F0019567  17.569   3.951   1.148  0.8046 -0.7250  0.2261
 2175UNK    C0119568  17.654   3.857   1.115 -0.0413  0.1580 -0.7384
 2175UNK    H0219569  17.629   3.812   1.018  1.2037  0.6009 -1.2791
 2175UNK    C0319570  17.770   3.838   1.181  0.5842  0.2816 -0.1738
 2175UNK    C0419571  17.875   3.745   1.148  0.0450 -0.3493  0.4825
 2175UNK    F0519572  17.819   3.651   1.065  0.0658 -0.3677 -0.2005
 2175UNK    F0619573  17.969   3.814   1.084 -0.2072 -0.3762  0.2124
 2175UNK    F0719574  17.935   3.704   1.261 -0.1013  0.4330  0.5174
 2175UNK    H0819575  17.802   3.903   1.261 -1.5999  0.2383  0.7495
 2176UNK    F0019576  21.401   4.135   1.810  0.3994  0.5969 -0.0376
 2176UNK    C0119577  21.382   4.186   1.689  0.3964  0.1243 -0.2471
 2176UNK    H0219578  21.415   4.122   1.608  1.1174  0.4549 -0.2215
 2176UNK    C0319579  21.262   4.239   1.686  0.3224  0.0028  0.4599
 2176UNK    C0419580  21.182   4.278   1.569  0.3798  0.3244  0.4720
 2176UNK    F0519581  21.177   4.173   1.478 -0.1969 -0.1337  0.4270
 2176UNK    F0619582  21.057   4.321   1.611  0.0890 -0.0128 -0.4999
 2176UNK    F0719583  21.240   4.375   1.498 -0.0861 -0.6667  0.8928
 2176UNK    H0819584  21.207   4.272   1.773  1.5554  0.0328  1.2372
 2177UNK    F0019585   5.907   1.385   7.249  0.0107  0.3811  0.0634
 2177UNK    C0119586   5.907   1.257   7.296  0.3904 -0.5453  0.1528
 2177UNK    H0219587   5.822   1.199   7.260  0.6059 -0.0320 -1.2150
 2177UNK    C0319588   6.021   1.212   7.345 -0.1178 -0.5268 -0.4940
 2177UNK    C0419589   6.030   1.095   7.432 -0.9688 -0.3000  0.0687
 2177UNK    F0519590   6.134   1.116   7.511 -0.1172 -0.3536 -0.7109
 2177UNK    F0619591   5.915   1.081   7.510 -0.4464 -0.7242 -0.3716
 2177UNK    F0719592   6.049   0.983   7.356  0.1087 -0.2524 -0.2795
 2177UNK    H0819593   6.113   1.250   7.303 -0.1082 -0.8570 -0.7691
 2178UNK    F0019594  47.068   3.720  10.942 -0.5420 -0.0704 -0.0935
 2178UNK    C0119595  47.185   3.784  10.911  0.5822 -0.1669  0.2977
 2178UNK    H0219596  47.169   3.892  10.915  0.9172 -0.1578  2.5831
 2178UNK    C0319597  47.299   3.721  10.903  0.0841 -0.6685 -0.9057
 2178UNK    C0419598  47.429   3.789  10.919  0.0342  0.7216 -0.6742
 2178UNK    F0519599  47.538   3.738  10.855 -0.4522  0.0300 -0.3890
 2178UNK    F0619600  47.426   3.907  10.855  0.1574  0.4278  0.1376
 2178UNK    F0719601  47.450   3.828  11.047  0.4053  0.1443 -0.4732
 2178UNK    H0819602  47.290   3.616  10.878  2.3589 -0.6712 -1.8416
 2179UNK    F0019603   9.363   0.385  12.326  0.2595 -0.6371  0.0964
 2179UNK    C0119604   9.284   0.487  12.301 -0.3369 -0.7903 -0.3336
 2179UNK    H0219605   9.200   0.458  12.237 -0.4198  0.0434 -0.5998
 2179UNK    C0319606   9.299   0.583  12.386 -0.8178 -0.1212  0.1888
 2179UNK    C0419607   9.175   0.647  12.432  0.0498  0.2613 -0.7805
 2179UNK    F0519608   9.226   0.746  12.513  0.2007 -0.4031 -0.1258
 2179UNK    F0619609   9.120   0.715  12.326 -0.1183  0.0817 -0.4148
 2179UNK    F0719610   9.076   0.573  12.485 -0.5550 -0.2336  0.1010
 2179UNK    H0819611   9.360   0.563  12.473 -0.7379  0.2984  0.2304
 2180UNK    F0019612  22.372   0.393  12.518 -0.3498  0.3816  0.4304
 2180UNK    C0119613  22.378   0.466  12.628  0.0379  0.6213 -0.0237
 2180UNK    H0219614  22.479   0.492  12.661  0.2212 -0.1338  0.0202
 2180UNK    C0319615  22.272   0.513  12.681  1.2722 -0.6862 -0.5159
 2180UNK    C0419616  22.270   0.608  12.798  0.1563  0.8904  0.4208
 2180UNK    F0519617  22.143   0.620  12.846 -0.4701 -0.0418  0.2186
 2180UNK    F0619618  22.349   0.570  12.901 -0.6494  0.2648  0.1584
 2180UNK    F0719619  22.298   0.733  12.761 -0.0260  0.0125  0.0323
 2180UNK    H0819620  22.173   0.480  12.653  0.9879  0.4160 -0.8429
 2181UNK    F0019621   2.767   2.064  10.407  0.3515  0.1519 -0.0170
 2181UNK    C0119622   2.663   1.986  10.416  0.0784  0.5372  0.0187
 2181UNK    H0219623   2.670   1.881  10.388  1.6309  0.4880  0.5481
 2181UNK    C0319624   2.550   2.045  10.438  0.6594  0.0932 -0.3253
 2181UNK    C0419625   2.427   1.972  10.468 -0.2691 -0.2392 -0.0650
 2181UNK    F0519626   2.406   1.869  10.389 -0.0929  0.0442  0.0674
 2181UNK    F0619627   2.419   1.934  10.599  0.4088  0.0317 -0.0757
 2181UNK    F0719628   2.320   2.051  10.449  0.6454 -0.0952  0.8159
 2181UNK    H0819629   2.533   2.140  10.388 -1.7854  0.4911  1.2095
 2182UNK    F0019630  51.218   2.234   0.334 -0.1210  0.2626  0.8012
 2182UNK    C0119631  51.130   2.334   0.313 -0.8077  0.3584 -0.5123
 2182UNK    H0219632  51.026   2.316   0.343 -0.2205  1.4871  2.3604
 2182UNK    C0319633  51.178   2.438   0.241 -0.5954  0.8389 -0.1691
 2182UNK    C0419634  51.329   2.456   0.239 -0.7938  0.0511  0.1035
 2182UNK    F0519635  51.388   2.365   0.164  0.5599 -0.1102  0.3928
 2182UNK    F0619636  51.352   2.584   0.201 -0.5734 -0.0302 -0.4171
 2182UNK    F0719637  51.383   2.433   0.359  0.4388 -0.1603  0.1157
 2182UNK    H0819638  51.124   2.497   0.168 -1.1723  0.4288 -0.0759
 2183UNK    F0019639  45.305   3.348   5.571  0.1442  0.4981 -0.0780
 2183UNK    C0119640  45.253   3.407   5.459  0.0043 -0.0685  0.0521
 2183UNK    H0219641  45.299   3.362   5.371 -0.6807  0.6469 -0.6847
 2183UNK    C0319642  45.154   3.496   5.470 -0.2823  0.3364  0.3114
 2183UNK    C0419643  45.027   3.476   5.395  0.7902 -0.2224 -0.2611
 2183UNK    F0519644  44.979   3.351   5.430  0.3995 -0.1665  0.1490
 2183UNK    F0619645  44.944   3.575   5.447 -0.3262  0.8554  0.0178
 2183UNK    F0719646  45.034   3.496   5.262 -0.0327 -0.0071  0.1056
 2183UNK    H0819647  45.173   3.602   5.460 -1.4489  0.6159  0.9854
 2184UNK    F0019648  23.700   3.567  12.794  0.2139  0.6533  0.5357
 2184UNK    C0119649  23.747   3.472  12.869 -0.3307  0.2253  0.3164
 2184UNK    H0219650  23.777   3.507  12.968  0.0472  0.3895  0.1424
 2184UNK    C0319651  23.820   3.386  12.800 -0.0881  0.1907 -0.0872
 2184UNK    C0419652  23.869   3.260  12.853  0.2747  0.0309  0.5433
 2184UNK    F0519653  23.785   3.167  12.818 -0.3211  0.2071 -0.5903
 2184UNK    F0619654  23.999   3.229  12.811 -0.1583 -0.2769 -0.1841
 2184UNK    F0719655  23.884   3.264  12.992  0.0003 -0.7272  0.1698
 2184UNK    H0819656  23.805   3.392  12.693  0.5337  1.1268 -0.1344
 2185UNK    F0019657  49.561   3.408   2.104  0.1267 -0.4378 -0.2882
 2185UNK    C0119658  49.666   3.413   2.183  0.4664 -0.2849 -0.1622
 2185UNK    H0219659  49.649   3.474   2.272 -0.7695 -1.2766  0.3056
 2185UNK    C0319660  49.776   3.367   2.128  0.3521  0.2021  0.4698
 2185UNK    C0419661  49.885   3.314   2.210 -0.0184 -0.2851 -0.2128
 2185UNK    F0519662  49.999   3.289   2.142  0.0704 -0.4030 -0.2696
 2185UNK    F0619663  49.936   3.407   2.295 -0.4490 -0.3410 -0.1898
 2185UNK    F0719664  49.856   3.194   2.275 -0.5981 -0.4069 -0.0275
 2185UNK    H0819665  49.813   3.415   2.038 -0.8944 -2.1677 -1.3796
 2186UNK    F0019666  37.963   2.362   8.360 -0.1282  0.9823  0.3501
 2186UNK    C0119667  37.886   2.284   8.431  0.9329 -0.5178 -0.1157
 2186UNK    H0219668  37.850   2.201   8.371  2.9203 -0.7042 -1.1110
 2186UNK    C0319669  37.836   2.318   8.542  0.3388  0.6699 -0.1318
 2186UNK    C0419670  37.748   2.228   8.613  0.2954  0.4115  0.2500
 2186UNK    F0519671  37.814   2.112   8.650 -0.1692  0.5510 -0.2278
 2186UNK    F0619672  37.706   2.285   8.727 -0.2071 -0.2418 -0.1751
 2186UNK    F0719673  37.641   2.190   8.548  0.0971 -0.1874 -0.5509
 2186UNK    H0819674  37.846   2.417   8.583  2.6008  0.2232  0.4546
 2187UNK    F0019675  22.041   4.596   6.332 -0.3903 -0.3514  0.0642
 2187UNK    C0119676  21.928   4.661   6.366  0.0343 -0.6603  0.1214
 2187UNK    H0219677  21.940   4.768   6.349 -1.5979 -0.6858 -1.2592
 2187UNK    C0319678  21.822   4.599   6.323 -0.6357 -0.0289  0.2307
 2187UNK    C0419679  21.693   4.671   6.298 -0.0851 -0.1410  0.0143
 2187UNK    F0519680  21.654   4.641   6.172  0.2627  0.2152 -0.1804
 2187UNK    F0619681  21.597   4.623   6.383 -0.1662  0.7486 -0.3511
 2187UNK    F0719682  21.704   4.802   6.316 -0.0239  0.4415  0.2731
 2187UNK    H0819683  21.833   4.503   6.274  1.5697  0.2142  0.1989
 2188UNK    F0019684  46.622   4.864   1.925  0.8940 -0.4855 -0.7060
 2188UNK    C0119685  46.578   4.995   1.930  0.4366  0.3001 -0.1393
 2188UNK    H0219686  46.641   5.071   1.884  1.9114  0.4864  2.1522
 2188UNK    C0319687  46.447   5.012   1.931 -0.4769  0.4808  0.3665
 2188UNK    C0419688  46.371   5.088   1.837  0.3581  0.1586 -0.3846
 2188UNK    F0519689  46.257   5.139   1.880 -0.0127 -0.6598 -0.4296
 2188UNK    F0619690  46.441   5.196   1.796  0.1934 -0.0797 -0.0489
 2188UNK    F0719691  46.338   5.007   1.731 -0.1307  0.4881 -0.1890
 2188UNK    H0819692  46.385   4.958   2.000  0.3096 -0.6270  0.2306
 2189UNK    F0019693  19.165   2.554   4.240  0.0229  0.0166  0.2213
 2189UNK    C0119694  19.246   2.459   4.183  0.5924 -0.3544 -0.1830
 2189UNK    H0219695  19.212   2.437   4.082  0.1703 -3.3173  0.5468
 2189UNK    C0319696  19.299   2.366   4.254 -0.1498 -0.3665  0.2274
 2189UNK    C0419697  19.244   2.236   4.279 -0.2357 -0.1981 -0.8643
 2189UNK    F0519698  19.193   2.182   4.162  0.2540 -0.2229 -0.6203
 2189UNK    F0619699  19.338   2.154   4.320 -0.4485  0.5818  0.1328
 2189UNK    F0719700  19.156   2.236   4.384 -0.2035  0.4264 -0.4466
 2189UNK    H0819701  19.401   2.369   4.287 -0.5951 -0.7058  1.6965
 2190UNK    F0019702  22.299   4.553   6.010 -0.6515  0.2274 -0.0044
 2190UNK    C0119703  22.193   4.489   5.969  0.7825 -0.4342  0.3249
 2190UNK    H0219704  22.165   4.415   6.043 -1.5237 -2.0183 -2.0400
 2190UNK    C0319705  22.148   4.491   5.844 -0.5270  0.3672  0.1206
 2190UNK    C0419706  22.015   4.440   5.803 -0.4214 -0.1372 -0.2202
 2190UNK    F0519707  22.015   4.425   5.669  0.1859 -0.6216  0.2376
 2190UNK    F0619708  21.995   4.319   5.868  0.1446  0.5034  0.1088
 2190UNK    F0719709  21.927   4.534   5.836 -0.0792  0.1028 -0.0272
 2190UNK    H0819710  22.196   4.536   5.758  1.7089 -1.7326  0.2295
 2191UNK    F0019711   2.569   3.019   4.262  0.2456  0.3539  0.1127
 2191UNK    C0119712   2.585   3.143   4.220  0.7625  0.6718  0.7929
 2191UNK    H0219713   2.691   3.154   4.200  0.9757 -3.2881 -0.7454
 2191UNK    C0319714   2.504   3.227   4.286  0.0739  0.1066 -0.2677
 2191UNK    C0419715   2.542   3.314   4.397 -0.3907  0.1247  0.4510
 2191UNK    F0519716   2.586   3.423   4.343 -0.3128  0.3062  0.0328
 2191UNK    F0619717   2.435   3.359   4.468 -0.2745  0.5920 -0.4095
 2191UNK    F0719718   2.627   3.267   4.489 -0.0266 -0.3680  0.4498
 2191UNK    H0819719   2.402   3.196   4.307  0.3698 -1.2430 -0.7607
 2192UNK    F0019720  48.915   4.634  11.502  0.4962  0.0197 -0.1844
 2192UNK    C0119721  48.843   4.542  11.438 -0.5440 -0.1271 -0.1370
 2192UNK    H0219722  48.873   4.544  11.334 -0.1647  2.2478  0.0005
 2192UNK    C0319723  48.736   4.487  11.501  0.0273  0.0177  0.5685
 2192UNK    C0419724  48.654   4.382  11.434 -0.0211  0.8814 -0.3742
 2192UNK    F0519725  48.537   4.358  11.499  0.2541  0.4318  0.2355
 2192UNK    F0619726  48.617   4.411  11.306 -0.5541  0.1153  0.2456
 2192UNK    F0719727  48.716   4.261  11.444  0.0578 -0.0231  0.2702
 2192UNK    H0819728  48.682   4.539  11.579  2.1180  0.7005  1.5859
 2193UNK    F0019729  28.494   4.303   4.519  0.4354 -0.4336  1.1087
 2193UNK    C0119730  28.398   4.285   4.426 -0.1298 -0.2092 -0.4666
 2193UNK    H0219731  28.372   4.371   4.364 -3.3508 -1.9846 -1.7026
 2193UNK    C0319732  28.313   4.184   4.455 -0.1473  0.1840 -0.3217
 2193UNK    C0419733  28.181   4.161   4.388 -0.2701 -0.2748 -0.3703
 2193UNK    F0519734  28.092   4.094   4.465 -0.0456 -0.2342  0.0104
 2193UNK    F0619735  28.130   4.285   4.360  0.1019  0.2881 -0.0329
 2193UNK    F0719736  28.198   4.099   4.272  0.8791  0.4658  0.1466
 2193UNK    H0819737  28.347   4.103   4.517 -1.9753 -0.1124  0.3283
 2194UNK    F0019738   3.951   1.299   7.794  0.4454 -0.0000 -0.4313
 2194UNK    C0119739   3.987   1.408   7.728 -0.9132 -0.0457  0.2752
 2194UNK    H0219740   3.904   1.463   7.683 -2.5416 -2.5800  0.0891
 2194UNK    C0319741   4.119   1.415   7.704 -0.5006 -0.1984 -0.1521
 2194UNK    C0419742   4.195   1.535   7.679 -0.1944  0.8532 -0.2895
 2194UNK    F0519743   4.150   1.617   7.583 -0.2458  0.0792  0.4337
 2194UNK    F0619744   4.197   1.609   7.790  0.0278  0.0706 -0.0375
 2194UNK    F0719745   4.326   1.511   7.650  0.2876  0.3976 -0.3877
 2194UNK    H0819746   4.186   1.343   7.748  1.1896  1.5119  0.1139
 2195UNK    F0019747  48.114   3.283   2.104  0.1582  0.5551 -0.7918
 2195UNK    C0119748  48.160   3.280   2.225 -0.1966 -0.2041  0.1157
 2195UNK    H0219749  48.263   3.315   2.225  0.0559 -0.9001 -0.8643
 2195UNK    C0319750  48.118   3.180   2.306  0.0736  0.1625  0.5635
 2195UNK    C0419751  48.216   3.085   2.367  0.8139 -0.2419 -0.4165
 2195UNK    F0519752  48.307   3.045   2.280  0.0178  0.3866  0.7237
 2195UNK    F0619753  48.285   3.158   2.458 -0.2731  0.2604 -0.3662
 2195UNK    F0719754  48.147   2.981   2.421 -0.2358 -0.2315  0.5932
 2195UNK    H0819755  48.017   3.146   2.290  0.3887 -0.2331 -0.6503
 2196UNK    F0019756   5.001   3.751  13.786  0.2916  0.1013 -0.1668
 2196UNK    C0119757   5.044   3.864  13.846  0.5674  0.2821  0.5611
 2196UNK    H0219758   5.079   3.938  13.774  0.8680 -1.0994 -0.7354
 2196UNK    C0319759   4.992   3.896  13.962  0.4101  0.3609  0.2329
 2196UNK    C0419760   5.004   4.034  14.009 -0.1219 -0.8055 -0.5798
 2196UNK    F0519761   4.965   4.121  13.910  0.6615  0.1593 -0.0710
 2196UNK    F0619762   4.928   4.059  14.120 -1.0479 -0.8783  0.1326
 2196UNK    F0719763   5.131   4.059  14.050  0.6336 -0.0392  0.4083
 2196UNK    H0819764   4.892   3.858  13.977  0.4656 -0.2831 -0.9501
 2197UNK    F0019765   2.839   4.537   2.261  0.1719 -0.1514 -0.6853
 2197UNK    C0119766   2.850   4.635   2.348 -0.2013 -0.3078  0.9627
 2197UNK    H0219767   2.757   4.691   2.356  0.7743  1.2652  1.6086
 2197UNK    C0319768   2.970   4.681   2.397  0.1971  0.0537 -0.2641
 2197UNK    C0419769   2.978   4.764   2.518 -0.2790  0.4717  0.3067
 2197UNK    F0519770   3.102   4.819   2.542  0.1397  0.4534  0.5814
 2197UNK    F0619771   2.877   4.860   2.512 -0.0639  0.0611 -0.4510
 2197UNK    F0719772   2.958   4.682   2.627 -0.0068  0.0925 -0.0507
 2197UNK    H0819773   3.063   4.635   2.366  0.5530  1.1298 -0.8281
 2198UNK    F0019774  44.974   2.145   3.833  0.2766 -0.2851  0.6597
 2198UNK    C0119775  44.949   2.113   3.710 -0.4775  0.3615  0.0319
 2198UNK    H0219776  45.016   2.169   3.645 -2.7966  3.5300  0.2595
 2198UNK    C0319777  44.854   2.030   3.669 -0.3944  0.5425 -0.5252
 2198UNK    C0419778  44.834   1.899   3.735  0.4105  0.1004 -0.0964
 2198UNK    F0519779  44.777   1.806   3.654 -0.2907  0.7425 -0.0616
 2198UNK    F0619780  44.963   1.848   3.749 -0.3197  0.4770  0.5526
 2198UNK    F0719781  44.779   1.895   3.859 -0.2242 -0.5049  0.6604
 2198UNK    H0819782  44.780   2.065   3.598 -0.5424 -3.2598 -2.3607
 2199UNK    F0019783  43.048   1.689   5.059 -0.4777 -0.5185 -0.8799
 2199UNK    C0119784  43.153   1.612   5.033 -0.2559 -0.5207  0.7640
 2199UNK    H0219785  43.248   1.657   5.058 -1.0723  0.6797  1.7742
 2199UNK    C0319786  43.136   1.498   4.966 -0.2855  0.0794  0.0681
 2199UNK    C0419787  43.161   1.472   4.821 -0.2652  0.0617  0.1563
 2199UNK    F0519788  43.159   1.588   4.753  0.4109  0.1549 -0.3925
 2199UNK    F0619789  43.280   1.407   4.804 -0.2897 -0.6018 -0.5790
 2199UNK    F0719790  43.070   1.380   4.771  0.8282  1.0274 -0.1900
 2199UNK    H0819791  43.056   1.437   5.007  0.0461  1.2499  2.5137
 2200UNK    F0019792  43.497   3.495   0.011  0.0772  0.1943 -0.0639
 2200UNK    C0119793  43.463   3.423  -0.092  1.0407  0.1210  0.5409
 2200UNK    H0219794  43.361   3.450  -0.119  0.2393 -3.4538 -0.2601
 2200UNK    C0319795  43.526   3.318  -0.141  0.6084 -0.7416  0.0898
 2200UNK    C0419796  43.666   3.306  -0.172  1.2924 -0.5875 -0.7228
 2200UNK    F0519797  43.717   3.251  -0.060  0.1314  0.7072 -0.0385
 2200UNK    F0619798  43.690   3.226  -0.273 -0.3563 -0.4694  0.5634
 2200UNK    F0719799  43.745   3.412  -0.205  0.0117  0.2459 -0.7629
 2200UNK    H0819800  43.465   3.229  -0.134 -0.3798 -0.1431 -0.7238
 2201UNK    F0019801  38.456   4.337   4.850  0.1072 -0.1532 -0.2272
 2201UNK    C0119802  38.360   4.241   4.847 -1.1131  0.1747  0.1288
 2201UNK    H0219803  38.378   4.171   4.766 -1.1409 -1.6888  1.6752
 2201UNK    C0319804  38.295   4.237   4.960 -0.8236  0.8435 -0.1895
 2201UNK    C0419805  38.232   4.105   4.993  0.0173 -0.1216  0.7806
 2201UNK    F0519806  38.140   4.118   5.089  0.1625  0.1604 -0.5269
 2201UNK    F0619807  38.152   4.077   4.891 -0.3320  0.4546  0.0386
 2201UNK    F0719808  38.329   4.008   5.001 -0.2013  0.0080 -0.1272
 2201UNK    H0819809  38.314   4.307   5.039  3.3815  0.3817 -0.6657
 2202UNK    F0019810  20.271   3.082   0.166 -0.3089  0.0784  0.1176
 2202UNK    C0119811  20.229   3.108   0.290  0.4279 -0.1592 -0.8372
 2202UNK    H0219812  20.305   3.071   0.359  1.5546  1.4333 -1.1769
 2202UNK    C0319813  20.100   3.141   0.314 -0.5161  0.3159  0.9910
 2202UNK    C0419814  20.057   3.188   0.442 -0.2459  0.2032 -0.1026
 2202UNK    F0519815  19.923   3.196   0.457  0.4505 -0.2691 -0.1722
 2202UNK    F0619816  20.095   3.102   0.542 -0.0990  0.2992 -0.7115
 2202UNK    F0719817  20.113   3.308   0.461  0.2219  0.0817 -0.2567
 2202UNK    H0819818  20.048   3.174   0.225 -0.2054 -1.3333  0.1681
 2203UNK    F0019819  47.256   4.069  13.767 -0.0578 -0.2468 -0.3550
 2203UNK    C0119820  47.314   4.090  13.888 -0.2076  0.3515  0.2452
 2203UNK    H0219821  47.240   4.118  13.963 -0.0281  0.6682  0.3083
 2203UNK    C0319822  47.441   4.126  13.896 -0.0716  0.5239  0.1762
 2203UNK    C0419823  47.537   4.077  13.998  0.1154  0.3785  0.5262
 2203UNK    F0519824  47.645   4.153  14.014  0.1502  0.2474  0.4253
 2203UNK    F0619825  47.471   4.085  14.116  0.0806  0.1865 -0.3902
 2203UNK    F0719826  47.566   3.943  13.984  0.3053 -0.1960  0.6196
 2203UNK    H0819827  47.487   4.176  13.812 -1.2225  0.3577 -0.5718
 2204UNK    F0019828  48.235   0.016  11.548 -0.4719  0.0414  0.2059
 2204UNK    C0119829  48.218  -0.116  11.574 -0.3949 -0.2255  0.6223
 2204UNK    H0219830  48.150  -0.138  11.656 -0.4041 -2.4762  0.0710
 2204UNK    C0319831  48.269  -0.211  11.498  0.0502 -0.6412 -0.1965
 2204UNK    C0419832  48.233  -0.354  11.494  0.1067  0.4495 -0.0827
 2204UNK    F0519833  48.321  -0.420  11.414  0.5761 -0.5618  0.5185
 2204UNK    F0619834  48.228  -0.421  11.614  0.1385  0.0909  0.1471
 2204UNK    F0719835  48.110  -0.375  11.442  0.3070  0.3188 -0.0414
 2204UNK    H0819836  48.368  -0.186  11.462 -0.2435 -0.8264 -1.1312
 2205UNK    F0019837  49.757   2.977   4.592 -0.3775  0.0275 -0.6855
 2205UNK    C0119838  49.858   2.913   4.657  0.1308 -0.3064  0.2723
 2205UNK    H0219839  49.909   2.992   4.711 -0.5896 -1.0965  2.1412
 2205UNK    C0319840  49.840   2.787   4.692 -0.0432  0.1613  0.0602
 2205UNK    C0419841  49.710   2.726   4.733  0.6802 -0.5429  0.4631
 2205UNK    F0519842  49.736   2.622   4.815 -0.1828 -0.4616  0.0649
 2205UNK    F0619843  49.638   2.823   4.800  0.3360  0.1141 -0.2648
 2205UNK    F0719844  49.643   2.675   4.626  0.4898 -0.2083 -0.0203
 2205UNK    H0819845  49.917   2.745   4.754 -0.4456 -0.7342 -0.0340
 2206UNK    F0019846  44.657   4.439  10.376  0.1236  0.0714 -0.1295
 2206UNK    C0119847  44.739   4.369  10.302  0.2063 -0.5757 -1.2741
 2206UNK    H0219848  44.700   4.268  10.285  0.4521 -0.9694  0.4394
 2206UNK    C0319849  44.865   4.408  10.297 -0.4185 -0.2075 -0.1835
 2206UNK    C0419850  44.950   4.353  10.189  0.0532  0.4600  0.1899
 2206UNK    F0519851  44.896   4.402  10.069 -0.1922  0.3436  0.8843
 2206UNK    F0619852  45.076   4.394  10.218 -0.2461  0.1099  0.0329
 2206UNK    F0719853  44.959   4.221  10.183  0.3636 -0.2677  0.3165
 2206UNK    H0819854  44.919   4.466  10.370  1.5582  0.2683 -1.9465
 2207UNK    F0019855  20.826   3.413   0.148  0.1257 -0.2445  0.1541
 2207UNK    C0119856  20.859   3.294   0.199 -0.5530  0.0219  0.8328
 2207UNK    H0219857  20.963   3.267   0.181 -0.2302  1.4194  0.6006
 2207UNK    C0319858  20.771   3.204   0.233 -0.1265 -0.0994  0.2058
 2207UNK    C0419859  20.796   3.059   0.233 -0.2839 -0.0881  0.4069
 2207UNK    F0519860  20.685   3.000   0.292  0.3052  0.1295  0.6031
 2207UNK    F0619861  20.792   3.013   0.105  0.0414 -0.1246  0.4031
 2207UNK    F0719862  20.921   3.026   0.282 -0.1771 -0.4963 -0.4523
 2207UNK    H0819863  20.665   3.222   0.235  0.1639  1.7269 -0.0755
 2208UNK    F0019864  26.542   1.362  12.489 -0.2361  0.0654  0.0990
 2208UNK    C0119865  26.589   1.350  12.363 -0.5210 -0.8591  0.3652
 2208UNK    H0219866  26.553   1.259  12.316  2.8170 -1.3226 -1.4843
 2208UNK    C0319867  26.629   1.459  12.298 -0.0042 -0.6496 -0.5818
 2208UNK    C0419868  26.655   1.468  12.156 -0.1455 -0.2629 -0.3469
 2208UNK    F0519869  26.744   1.565  12.132  0.4892 -0.1433 -0.6050
 2208UNK    F0619870  26.715   1.355  12.114  1.2408  0.0053 -0.0315
 2208UNK    F0719871  26.545   1.494  12.080  0.3243  0.0097 -0.2115
 2208UNK    H0819872  26.686   1.530  12.356 -2.3831  1.7502 -1.0864
 2209UNK    F0019873  12.319   2.339   3.263  0.7711  0.2711 -0.2558
 2209UNK    C0119874  12.246   2.424   3.195  0.4260  0.6496  0.5794
 2209UNK    H0219875  12.267   2.439   3.089  2.0345 -3.2504  0.2737
 2209UNK    C0319876  12.132   2.458   3.248  0.2862  0.5119  0.1725
 2209UNK    C0419877  12.088   2.602   3.268 -0.2611  0.8520 -0.2408
 2209UNK    F0519878  12.022   2.635   3.162  0.2401 -0.3822  0.3235
 2209UNK    F0619879  12.001   2.609   3.379  0.3323 -0.4437  0.0210
 2209UNK    F0719880  12.199   2.682   3.275 -0.4278  0.1691  0.3197
 2209UNK    H0819881  12.089   2.386   3.316  0.5291  0.1251 -0.0859
 2210UNK    F0019882  49.536   0.301   6.549 -0.1554  0.2953  0.2576
 2210UNK    C0119883  49.457   0.352   6.453  0.0183 -0.0599  0.0152
 2210UNK    H0219884  49.356   0.309   6.455 -0.5156  1.1895 -0.0223
 2210UNK    C0319885  49.492   0.458   6.384  0.2876 -0.7337  0.1961
 2210UNK    C0419886  49.590   0.471   6.280  0.1864 -0.0698  0.1208
 2210UNK    F0519887  49.615   0.599   6.255  0.3892 -0.0788  0.1033
 2210UNK    F0619888  49.705   0.410   6.308 -0.4180  0.7519 -0.1953
 2210UNK    F0719889  49.546   0.420   6.158  0.0913 -0.0245  0.0868
 2210UNK    H0819890  49.454   0.555   6.413 -2.0935 -2.1064  1.8680
  52.68000   5.23400  14.55090
